version 2
run FastRetransmit-0-20170118-23:55:30-2480
attr configname FastRetransmit
attr datetime 20170118-23:55:30
attr experiment FastRetransmit
attr inifile omnetpp.ini
attr iterationvars ""
attr iterationvars2 $repetition=0
attr measurement ""
attr network Network
attr processid 2480
attr repetition 0
attr replication #0
attr resultdir results
attr runnumber 0
attr seedset 0

vector 11  Network.server.ppp[0].queue  queueLength:vector  ETV
attr interpolationmode  sample-hold
attr title  "queue length, vector"
vector 12  Network.server.ppp[0].ppp  txState:vector  ETV
attr interpolationmode  sample-hold
attr title  "tx state, vector"
vector 27  Network.client.ppp[0].queue  queueLength:vector  ETV
attr interpolationmode  sample-hold
attr title  "queue length, vector"
vector 28  Network.client.ppp[0].ppp  txState:vector  ETV
attr interpolationmode  sample-hold
attr title  "tx state, vector"
vector 74  Network.client.tcp  tcpRcvQueueBytes  ETV
vector 61  Network.client.tcp  "advertised window"  ETV
vector 60  Network.client.tcp  "receive window"  ETV
vector 63  Network.client.tcp  "sent ack"  ETV
vector 24  Network.client.ppp[0].queue  rcvdPk:vector(packetBytes)  ETV
attr interpolationmode  none
attr title  "received packets, vector(packetBytes)"
vector 26  Network.client.ppp[0].queue  queueingTime:vector  ETV
attr interpolationmode  none
attr title  "queueing time, vector"
vector 33  Network.client.ppp[0].ppp  rcvdPkFromHL:vector(packetBytes)  ETV
attr interpolationmode  none
attr source  packetReceivedFromUpper
attr title  "packets received from higher layer, vector(packetBytes)"
vector 29  Network.client.ppp[0].ppp  txPk:vector(packetBytes)  ETV
attr interpolationmode  none
attr source  packetSentToLower
attr title  "packets transmitted, vector(packetBytes)"
vector 14  Network.server.ppp[0].ppp  rxPkOk:vector(packetBytes)  ETV
attr interpolationmode  none
attr source  rxPkOk
attr title  "packets received OK, vector(packetBytes)"
vector 18  Network.server.ppp[0].ppp  passedUpPk:vector(packetBytes)  ETV
attr interpolationmode  none
attr source  packetSentToUpper
attr title  "packets passed to higher layer, vector(packetBytes)"
vector 40  Network.server.tcp  "rcvd seq"  ETV
vector 41  Network.server.tcp  "rcvd ack"  ETV
vector 37  Network.server.tcp  "advertised window"  ETV
vector 35  Network.server.tcp  "send window"  ETV
vector 50  Network.server.tcp  tcpRcvQueueBytes  ETV
vector 36  Network.server.tcp  "receive window"  ETV
vector 39  Network.server.tcp  "sent ack"  ETV
vector 5  Network.server.ppp[0].outputHook[0]  rcvdPk:vector(packetBytes)  ETV
attr interpolationmode  none
attr source  rcvdPk
attr title  "packets received, vector(packetBytes)"
vector 6  Network.server.ppp[0].outputHook[0]  sentPk:vector(packetBytes)  ETV
attr interpolationmode  none
attr source  sentPk
attr title  "packets sent, vector(packetBytes)"
vector 8  Network.server.ppp[0].queue  rcvdPk:vector(packetBytes)  ETV
attr interpolationmode  none
attr title  "received packets, vector(packetBytes)"
vector 10  Network.server.ppp[0].queue  queueingTime:vector  ETV
attr interpolationmode  none
attr title  "queueing time, vector"
vector 17  Network.server.ppp[0].ppp  rcvdPkFromHL:vector(packetBytes)  ETV
attr interpolationmode  none
attr source  packetReceivedFromUpper
attr title  "packets received from higher layer, vector(packetBytes)"
vector 13  Network.server.ppp[0].ppp  txPk:vector(packetBytes)  ETV
attr interpolationmode  none
attr source  packetSentToLower
attr title  "packets transmitted, vector(packetBytes)"
vector 30  Network.client.ppp[0].ppp  rxPkOk:vector(packetBytes)  ETV
attr interpolationmode  none
attr source  rxPkOk
attr title  "packets received OK, vector(packetBytes)"
vector 34  Network.client.ppp[0].ppp  passedUpPk:vector(packetBytes)  ETV
attr interpolationmode  none
attr source  packetSentToUpper
attr title  "packets passed to higher layer, vector(packetBytes)"
vector 64  Network.client.tcp  "rcvd seq"  ETV
vector 65  Network.client.tcp  "rcvd ack"  ETV
vector 59  Network.client.tcp  "send window"  ETV
vector 62  Network.client.tcp  "sent seq"  ETV
vector 66  Network.client.tcp  "unacked bytes"  ETV
vector 42  Network.server.tcp  "unacked bytes"  ETV
vector 43  Network.server.tcp  "rcvd dupAcks"  ETV
vector 38  Network.server.tcp  "sent seq"  ETV
vector 78  Network.client.tcp  "measured RTT"  ETV
vector 79  Network.client.tcp  "smoothed RTT"  ETV
vector 80  Network.client.tcp  RTTVAR  ETV
vector 81  Network.client.tcp  RTO  ETV
vector 76  Network.client.tcp  cwnd  ETV
vector 67  Network.client.tcp  "rcvd dupAcks"  ETV
vector 54  Network.server.tcp  "measured RTT"  ETV
vector 55  Network.server.tcp  "smoothed RTT"  ETV
vector 56  Network.server.tcp  RTTVAR  ETV
vector 57  Network.server.tcp  RTO  ETV
vector 52  Network.server.tcp  cwnd  ETV
vector 7  Network.server.ppp[0].outputHook[0]  dropPk:vector(packetBytes)  ETV
attr interpolationmode  none
attr source  dropPk
attr title  "packets dropped, vector(packetBytes)"
vector 71  Network.client.tcp  "rcvd oooseg"  ETV
vector 53  Network.server.tcp  ssthresh  ETV
52	67	0.010074	1072
52	98	0.0141244	1608
52	110	0.01417104	2144
52	160	0.0181748	2680
52	170	0.01822144	3216
52	182	0.01826808	3752
52	193	0.01831472	4288
52	260	0.0222252	4824
52	279	0.02236512	536
52	325	0.02641552	1072
52	356	0.03046592	1608
52	368	0.03051256	2144
52	418	0.03451632	2680
52	430	0.03456296	2787
52	438	0.0346096	2890
52	446	0.03465624	2989
52	500	0.03856672	3085
52	508	0.03861336	3178
52	516	0.03866	3268
52	528	0.03870664	3355
52	536	0.03875328	3440
52	599	0.04261712	3523
52	607	0.04266376	3604
52	615	0.0427104	3683
52	627	0.04275704	3761
52	631	0.04280368	3837
52	634	0.04285032	3911
52	677	0.04666752	3984
52	680	0.04671416	4056
52	683	0.0467608	4126
52	686	0.04678344	4195
52	715	0.05079848	4263
53	279	0.02236512	2412
54	67	0.010074	0.00405416
54	98	0.0141244	0.0040504
54	160	0.0181748	0.0040504
54	260	0.0222252	0.0040504
54	325	0.02641552	0.00419032
54	356	0.03046592	0.0040504
54	418	0.03451632	0.0040504
54	500	0.03856672	0.0040504
54	599	0.04261712	0.0040504
54	677	0.04666752	0.0040504
55	67	0.010074	0.00050677
55	98	0.0141244	0.00094972375
55	160	0.0181748	0.001337308281
55	260	0.0222252	0.001676444745
55	325	0.02641552	0.001990679151
55	356	0.03046592	0.002248144257
55	418	0.03451632	0.002473426224
55	500	0.03856672	0.002670547946
55	599	0.04261712	0.002843029452
55	677	0.04666752	0.00299395077
56	67	0.010074	0.65675677
56	98	0.0141244	0.5751051275
56	160	0.0181748	0.503604571094
56	260	0.0222252	0.440993136173
56	325	0.02641552	0.386183228559
56	356	0.03046592	0.338167790096
56	418	0.03451632	0.296122098302
56	500	0.03856672	0.259303957737
56	599	0.04261712	0.227063444527
56	677	0.04666752	0.19883143528
57	67	0.010074	2.62753385
57	98	0.0141244	2.30137023375
57	160	0.0181748	2.015755592657
57	260	0.0222252	1.765648989437
57	325	0.02641552	1.546723593387
57	356	0.03046592	1.354919304641
57	418	0.03451632	1.186961819432
57	500	0.03856672	1.039886378894
57	599	0.04261712	1
57	677	0.04666752	1
35	15	0.00200408	65535
35	36	0.00601192	65535
35	67	0.010074	65535
35	98	0.0141244	65535
35	110	0.01417104	65535
35	160	0.0181748	65535
35	170	0.01822144	65535
35	182	0.01826808	65535
35	193	0.01831472	65535
35	260	0.0222252	65535
35	272	0.02227184	65535
35	276	0.02231848	65535
35	279	0.02236512	65535
35	287	0.02241176	65535
35	290	0.0224584	65535
35	293	0.02250504	65535
35	319	0.0262756	65535
35	322	0.02632224	65535
35	325	0.02641552	65535
35	356	0.03046592	65535
35	368	0.03051256	65535
35	418	0.03451632	65535
35	430	0.03456296	65535
35	438	0.0346096	65535
35	446	0.03465624	65535
35	500	0.03856672	65535
35	508	0.03861336	65535
35	516	0.03866	65535
35	528	0.03870664	65535
35	536	0.03875328	65535
35	599	0.04261712	65535
35	607	0.04266376	65535
35	615	0.0427104	65535
35	627	0.04275704	65535
35	631	0.04280368	65535
35	634	0.04285032	65535
35	677	0.04666752	65535
35	680	0.04671416	65535
35	683	0.0467608	65535
35	686	0.04678344	65535
35	715	0.05079848	65535
36	15	0.00200408	65535
36	40	0.00601984	65535
36	43	0.00601984	65535
36	67	0.010074	65535
36	67	0.010074	65535
36	98	0.0141244	65535
36	98	0.0141244	65535
36	110	0.01417104	65535
36	110	0.01417104	65535
36	160	0.0181748	65535
36	160	0.0181748	65535
36	170	0.01822144	65535
36	170	0.01822144	65535
36	182	0.01826808	65535
36	182	0.01826808	65535
36	193	0.01831472	65535
36	193	0.01831472	65535
36	260	0.0222252	65535
36	260	0.0222252	65535
36	279	0.02236512	65535
36	325	0.02641552	65535
36	325	0.02641552	65535
36	356	0.03046592	65535
36	356	0.03046592	65535
36	368	0.03051256	65535
36	368	0.03051256	65535
36	418	0.03451632	65535
36	418	0.03451632	65535
36	430	0.03456296	65535
36	438	0.0346096	65535
36	446	0.03465624	65535
36	500	0.03856672	65535
36	508	0.03861336	65535
36	516	0.03866	65535
36	516	0.03866	65535
36	528	0.03870664	65535
36	536	0.03875328	65535
36	599	0.04261712	65535
36	607	0.04266376	65535
36	615	0.0427104	65535
36	615	0.0427104	65535
36	689	0.0467872	65535
36	693	0.0467872	65535
37	15	0.00200408	65536
37	15	0.00200408	65536
37	40	0.00601984	65588
37	43	0.00601984	65588
37	67	0.010074	65588
37	67	0.010074	65588
37	98	0.0141244	65588
37	98	0.0141244	65588
37	110	0.01417104	65588
37	110	0.01417104	65588
37	160	0.0181748	65588
37	160	0.0181748	65588
37	170	0.01822144	65588
37	170	0.01822144	65588
37	182	0.01826808	65588
37	182	0.01826808	65588
37	193	0.01831472	65588
37	193	0.01831472	65588
37	260	0.0222252	65588
37	260	0.0222252	65588
37	279	0.02236512	65588
37	325	0.02641552	65588
37	325	0.02641552	65588
37	356	0.03046592	65588
37	356	0.03046592	65588
37	368	0.03051256	65588
37	368	0.03051256	65588
37	418	0.03451632	65588
37	418	0.03451632	65588
37	430	0.03456296	65588
37	438	0.0346096	65588
37	446	0.03465624	65588
37	500	0.03856672	65588
37	508	0.03861336	65588
37	516	0.03866	65588
37	516	0.03866	65588
37	528	0.03870664	65588
37	536	0.03875328	65588
37	599	0.04261712	65588
37	607	0.04266376	65588
37	615	0.0427104	65588
37	615	0.0427104	65588
37	689	0.0467872	65589
37	693	0.0467872	65589
38	43	0.00601984	502
38	67	0.010074	1038
38	67	0.010074	1574
38	98	0.0141244	2110
38	98	0.0141244	2646
38	110	0.01417104	3182
38	110	0.01417104	3718
38	160	0.0181748	4254
38	160	0.0181748	4790
38	170	0.01822144	5326
38	170	0.01822144	5862
38	182	0.01826808	6398
38	182	0.01826808	6934
38	193	0.01831472	7470
38	193	0.01831472	8006
38	260	0.0222252	8542
38	260	0.0222252	9078
38	279	0.02236512	4790
38	325	0.02641552	9614
38	325	0.02641552	10150
38	356	0.03046592	10686
38	356	0.03046592	11222
38	368	0.03051256	11758
38	368	0.03051256	12294
38	418	0.03451632	12830
38	418	0.03451632	13366
38	430	0.03456296	13902
38	438	0.0346096	14438
38	446	0.03465624	14974
38	500	0.03856672	15510
38	508	0.03861336	16046
38	516	0.03866	16582
38	516	0.03866	17118
38	528	0.03870664	17654
38	536	0.03875328	18190
38	599	0.04261712	18726
38	607	0.04266376	19262
38	615	0.0427104	19798
38	615	0.0427104	20334
39	15	0.00200408	1
39	40	0.00601984	53
39	43	0.00601984	53
39	67	0.010074	53
39	67	0.010074	53
39	98	0.0141244	53
39	98	0.0141244	53
39	110	0.01417104	53
39	110	0.01417104	53
39	160	0.0181748	53
39	160	0.0181748	53
39	170	0.01822144	53
39	170	0.01822144	53
39	182	0.01826808	53
39	182	0.01826808	53
39	193	0.01831472	53
39	193	0.01831472	53
39	260	0.0222252	53
39	260	0.0222252	53
39	279	0.02236512	53
39	325	0.02641552	53
39	325	0.02641552	53
39	356	0.03046592	53
39	356	0.03046592	53
39	368	0.03051256	53
39	368	0.03051256	53
39	418	0.03451632	53
39	418	0.03451632	53
39	430	0.03456296	53
39	438	0.0346096	53
39	446	0.03465624	53
39	500	0.03856672	53
39	508	0.03861336	53
39	516	0.03866	53
39	516	0.03866	53
39	528	0.03870664	53
39	536	0.03875328	53
39	599	0.04261712	53
39	607	0.04266376	53
39	615	0.0427104	53
39	615	0.0427104	53
39	689	0.0467872	54
39	693	0.0467872	54
40	15	0.00200408	0
40	36	0.00601192	1
40	40	0.00601984	1
40	67	0.010074	53
40	98	0.0141244	53
40	110	0.01417104	53
40	160	0.0181748	53
40	170	0.01822144	53
40	182	0.01826808	53
40	193	0.01831472	53
40	260	0.0222252	53
40	272	0.02227184	53
40	276	0.02231848	53
40	279	0.02236512	53
40	287	0.02241176	53
40	290	0.0224584	53
40	293	0.02250504	53
40	319	0.0262756	53
40	322	0.02632224	53
40	325	0.02641552	53
40	356	0.03046592	53
40	368	0.03051256	53
40	418	0.03451632	53
40	430	0.03456296	53
40	438	0.0346096	53
40	446	0.03465624	53
40	500	0.03856672	53
40	508	0.03861336	53
40	516	0.03866	53
40	528	0.03870664	53
40	536	0.03875328	53
40	599	0.04261712	53
40	607	0.04266376	53
40	615	0.0427104	53
40	627	0.04275704	53
40	631	0.04280368	53
40	634	0.04285032	53
40	677	0.04666752	53
40	680	0.04671416	53
40	683	0.0467608	53
40	686	0.04678344	53
40	689	0.0467872	53
40	715	0.05079848	54
41	15	0.00200408	0
41	36	0.00601192	502
41	40	0.00601984	502
41	67	0.010074	1038
41	98	0.0141244	1574
41	110	0.01417104	2110
41	160	0.0181748	2646
41	170	0.01822144	3182
41	182	0.01826808	3718
41	193	0.01831472	4254
41	260	0.0222252	4790
41	272	0.02227184	4790
41	276	0.02231848	4790
41	279	0.02236512	4790
41	287	0.02241176	4790
41	290	0.0224584	4790
41	293	0.02250504	4790
41	319	0.0262756	4790
41	322	0.02632224	4790
41	325	0.02641552	9614
41	356	0.03046592	10150
41	368	0.03051256	10686
41	418	0.03451632	11222
41	430	0.03456296	11758
41	438	0.0346096	12294
41	446	0.03465624	12830
41	500	0.03856672	13366
41	508	0.03861336	13902
41	516	0.03866	14438
41	528	0.03870664	14974
41	536	0.03875328	15510
41	599	0.04261712	16046
41	607	0.04266376	16582
41	615	0.0427104	17118
41	627	0.04275704	17654
41	631	0.04280368	18190
41	634	0.04285032	18726
41	677	0.04666752	19262
41	680	0.04671416	19798
41	683	0.0467608	20334
41	686	0.04678344	20570
41	689	0.0467872	20570
41	715	0.05079848	20571
42	36	0.00601192	0
42	43	0.00601984	536
42	67	0.010074	0
42	67	0.010074	1072
42	98	0.0141244	536
42	98	0.0141244	1608
42	110	0.01417104	1072
42	110	0.01417104	2144
42	160	0.0181748	1608
42	160	0.0181748	2680
42	170	0.01822144	2144
42	170	0.01822144	3216
42	182	0.01826808	2680
42	182	0.01826808	3752
42	193	0.01831472	3216
42	193	0.01831472	4288
42	260	0.0222252	3752
42	260	0.0222252	4824
42	325	0.02641552	0
42	325	0.02641552	1072
42	356	0.03046592	536
42	356	0.03046592	1608
42	368	0.03051256	1072
42	368	0.03051256	2144
42	418	0.03451632	1608
42	418	0.03451632	2680
42	430	0.03456296	2144
42	430	0.03456296	2680
42	438	0.0346096	2144
42	438	0.0346096	2680
42	446	0.03465624	2144
42	446	0.03465624	2680
42	500	0.03856672	2144
42	500	0.03856672	2680
42	508	0.03861336	2144
42	508	0.03861336	2680
42	516	0.03866	2144
42	516	0.03866	3216
42	528	0.03870664	2680
42	528	0.03870664	3216
42	536	0.03875328	2680
42	536	0.03875328	3216
42	599	0.04261712	2680
42	599	0.04261712	3216
42	607	0.04266376	2680
42	607	0.04266376	3216
42	615	0.0427104	2680
42	615	0.0427104	3452
42	627	0.04275704	2916
42	631	0.04280368	2380
42	634	0.04285032	1844
42	677	0.04666752	1308
42	680	0.04671416	772
42	683	0.0467608	236
42	686	0.04678344	0
42	693	0.0467872	1
42	715	0.05079848	0
43	40	0.00601984	0
43	67	0.010074	0
43	98	0.0141244	0
43	110	0.01417104	0
43	160	0.0181748	0
43	170	0.01822144	0
43	182	0.01826808	0
43	193	0.01831472	0
43	260	0.0222252	0
43	272	0.02227184	1
43	276	0.02231848	2
43	279	0.02236512	3
43	287	0.02241176	4
43	290	0.0224584	5
43	293	0.02250504	6
43	319	0.0262756	7
43	322	0.02632224	8
43	325	0.02641552	0
43	356	0.03046592	0
43	368	0.03051256	0
43	418	0.03451632	0
43	430	0.03456296	0
43	438	0.0346096	0
43	446	0.03465624	0
43	500	0.03856672	0
43	508	0.03861336	0
43	516	0.03866	0
43	528	0.03870664	0
43	536	0.03875328	0
43	599	0.04261712	0
43	607	0.04266376	0
43	615	0.0427104	0
43	627	0.04275704	0
43	631	0.04280368	0
43	634	0.04285032	0
43	677	0.04666752	0
43	680	0.04671416	0
43	683	0.0467608	0
43	686	0.04678344	0
43	689	0.0467872	0
43	715	0.05079848	0
50	15	0.00200408	0
50	40	0.00601984	0
50	40	0.00601984	0
50	43	0.00601984	0
50	67	0.010074	0
50	67	0.010074	0
50	98	0.0141244	0
50	98	0.0141244	0
50	110	0.01417104	0
50	110	0.01417104	0
50	160	0.0181748	0
50	160	0.0181748	0
50	170	0.01822144	0
50	170	0.01822144	0
50	182	0.01826808	0
50	182	0.01826808	0
50	193	0.01831472	0
50	193	0.01831472	0
50	260	0.0222252	0
50	260	0.0222252	0
50	279	0.02236512	0
50	325	0.02641552	0
50	325	0.02641552	0
50	356	0.03046592	0
50	356	0.03046592	0
50	368	0.03051256	0
50	368	0.03051256	0
50	418	0.03451632	0
50	418	0.03451632	0
50	430	0.03456296	0
50	438	0.0346096	0
50	446	0.03465624	0
50	500	0.03856672	0
50	508	0.03861336	0
50	516	0.03866	0
50	516	0.03866	0
50	528	0.03870664	0
50	536	0.03875328	0
50	599	0.04261712	0
50	607	0.04266376	0
50	615	0.0427104	0
50	615	0.0427104	0
50	689	0.0467872	0
50	693	0.0467872	0
76	55	0.0080236	1072
76	704	0.04879096	1608
78	55	0.0080236	0.00401544
79	55	0.0080236	0.00050193
80	55	0.0080236	0.65675193
81	55	0.0080236	2.62750965
59	23	0.00400816	65535
59	55	0.0080236	65535
59	704	0.04879096	65535
60	8	0	65535
60	23	0.00400816	65535
60	27	0.00400816	65535
60	58	0.00807024	65535
60	80	0.01212064	65535
60	89	0.01216728	65535
60	124	0.01617104	65535
60	133	0.01621768	65535
60	142	0.01626432	65535
60	151	0.01631096	65535
60	209	0.02022144	65535
60	218	0.02026808	65535
60	225	0.02031472	65535
60	232	0.02036136	65535
60	239	0.020408	65535
60	246	0.02045464	65535
60	253	0.02050128	65535
60	296	0.02427184	65535
60	303	0.02431848	65535
60	310	0.02441176	65535
60	338	0.02846216	65535
60	347	0.0285088	65535
60	382	0.03251256	65535
60	391	0.0325592	65535
60	400	0.03260584	65535
60	409	0.03265248	65535
60	455	0.03656296	65535
60	464	0.0366096	65535
60	473	0.03665624	65535
60	482	0.03670288	65535
60	491	0.03674952	65535
60	545	0.04061336	65535
60	554	0.04066	65535
60	563	0.04070664	65535
60	572	0.04075328	65535
60	581	0.04079992	65535
60	590	0.04084656	65535
60	637	0.04466376	65535
60	646	0.0447104	65535
60	655	0.04475704	65535
60	664	0.04477968	65535
60	667	0.04477968	65535
60	707	0.04879472	65535
61	8	0	65535
61	23	0.00400816	66037
61	23	0.00400816	66037
61	27	0.00400816	66037
61	58	0.00807024	66573
61	80	0.01212064	67109
61	89	0.01216728	67645
61	124	0.01617104	68181
61	133	0.01621768	68717
61	142	0.01626432	69253
61	151	0.01631096	69789
61	209	0.02022144	70325
61	218	0.02026808	70325
61	225	0.02031472	70325
61	232	0.02036136	70325
61	239	0.020408	70325
61	246	0.02045464	70325
61	253	0.02050128	70325
61	296	0.02427184	70325
61	303	0.02431848	70325
61	310	0.02441176	75149
61	338	0.02846216	75685
61	347	0.0285088	76221
61	382	0.03251256	76757
61	391	0.0325592	77293
61	400	0.03260584	77829
61	409	0.03265248	78365
61	455	0.03656296	78901
61	464	0.0366096	79437
61	473	0.03665624	79973
61	482	0.03670288	80509
61	491	0.03674952	81045
61	545	0.04061336	81581
61	554	0.04066	82117
61	563	0.04070664	82653
61	572	0.04075328	83189
61	581	0.04079992	83725
61	590	0.04084656	84261
61	637	0.04466376	84797
61	646	0.0447104	85333
61	655	0.04475704	85869
61	664	0.04477968	86105
61	667	0.04477968	86105
61	707	0.04879472	86106
62	27	0.00400816	1
63	8	0	0
63	23	0.00400816	502
63	27	0.00400816	502
63	58	0.00807024	1038
63	80	0.01212064	1574
63	89	0.01216728	2110
63	124	0.01617104	2646
63	133	0.01621768	3182
63	142	0.01626432	3718
63	151	0.01631096	4254
63	209	0.02022144	4790
63	218	0.02026808	4790
63	225	0.02031472	4790
63	232	0.02036136	4790
63	239	0.020408	4790
63	246	0.02045464	4790
63	253	0.02050128	4790
63	296	0.02427184	4790
63	303	0.02431848	4790
63	310	0.02441176	9614
63	338	0.02846216	10150
63	347	0.0285088	10686
63	382	0.03251256	11222
63	391	0.0325592	11758
63	400	0.03260584	12294
63	409	0.03265248	12830
63	455	0.03656296	13366
63	464	0.0366096	13902
63	473	0.03665624	14438
63	482	0.03670288	14974
63	491	0.03674952	15510
63	545	0.04061336	16046
63	554	0.04066	16582
63	563	0.04070664	17118
63	572	0.04075328	17654
63	581	0.04079992	18190
63	590	0.04084656	18726
63	637	0.04466376	19262
63	646	0.0447104	19798
63	655	0.04475704	20334
63	664	0.04477968	20570
63	667	0.04477968	20570
63	707	0.04879472	20571
64	23	0.00400816	501
64	55	0.0080236	502
64	58	0.00807024	502
64	80	0.01212064	1038
64	89	0.01216728	1574
64	124	0.01617104	2110
64	133	0.01621768	2646
64	142	0.01626432	3182
64	151	0.01631096	3718
64	209	0.02022144	4254
64	218	0.02026808	5326
64	225	0.02031472	5862
64	232	0.02036136	6398
64	239	0.020408	6934
64	246	0.02045464	7470
64	253	0.02050128	8006
64	296	0.02427184	8542
64	303	0.02431848	9078
64	310	0.02441176	4790
64	338	0.02846216	9614
64	347	0.0285088	10150
64	382	0.03251256	10686
64	391	0.0325592	11222
64	400	0.03260584	11758
64	409	0.03265248	12294
64	455	0.03656296	12830
64	464	0.0366096	13366
64	473	0.03665624	13902
64	482	0.03670288	14438
64	491	0.03674952	14974
64	545	0.04061336	15510
64	554	0.04066	16046
64	563	0.04070664	16582
64	572	0.04075328	17118
64	581	0.04079992	17654
64	590	0.04084656	18190
64	637	0.04466376	18726
64	646	0.0447104	19262
64	655	0.04475704	19798
64	664	0.04477968	20334
64	704	0.04879096	20570
64	707	0.04879472	20570
65	23	0.00400816	1
65	55	0.0080236	53
65	58	0.00807024	53
65	80	0.01212064	53
65	89	0.01216728	53
65	124	0.01617104	53
65	133	0.01621768	53
65	142	0.01626432	53
65	151	0.01631096	53
65	209	0.02022144	53
65	218	0.02026808	53
65	225	0.02031472	53
65	232	0.02036136	53
65	239	0.020408	53
65	246	0.02045464	53
65	253	0.02050128	53
65	296	0.02427184	53
65	303	0.02431848	53
65	310	0.02441176	53
65	338	0.02846216	53
65	347	0.0285088	53
65	382	0.03251256	53
65	391	0.0325592	53
65	400	0.03260584	53
65	409	0.03265248	53
65	455	0.03656296	53
65	464	0.0366096	53
65	473	0.03665624	53
65	482	0.03670288	53
65	491	0.03674952	53
65	545	0.04061336	53
65	554	0.04066	53
65	563	0.04070664	53
65	572	0.04075328	53
65	581	0.04079992	53
65	590	0.04084656	53
65	637	0.04466376	53
65	646	0.0447104	53
65	655	0.04475704	53
65	664	0.04477968	53
65	704	0.04879096	54
65	707	0.04879472	54
66	27	0.00400816	52
66	55	0.0080236	0
66	667	0.04477968	1
66	704	0.04879096	0
67	55	0.0080236	0
67	58	0.00807024	0
67	80	0.01212064	0
67	89	0.01216728	0
67	124	0.01617104	0
67	133	0.01621768	0
67	142	0.01626432	0
67	151	0.01631096	0
67	209	0.02022144	0
67	218	0.02026808	0
67	225	0.02031472	0
67	232	0.02036136	0
67	239	0.020408	0
67	246	0.02045464	0
67	253	0.02050128	0
67	296	0.02427184	0
67	303	0.02431848	0
67	310	0.02441176	0
67	338	0.02846216	0
67	347	0.0285088	0
67	382	0.03251256	0
67	391	0.0325592	0
67	400	0.03260584	0
67	409	0.03265248	0
67	455	0.03656296	0
67	464	0.0366096	0
67	473	0.03665624	0
67	482	0.03670288	0
67	491	0.03674952	0
67	545	0.04061336	0
67	554	0.04066	0
67	563	0.04070664	0
67	572	0.04075328	0
67	581	0.04079992	0
67	590	0.04084656	0
67	637	0.04466376	0
67	646	0.0447104	0
67	655	0.04475704	0
67	664	0.04477968	0
67	704	0.04879096	0
67	707	0.04879472	0
71	218	0.02026808	1
71	225	0.02031472	2
71	232	0.02036136	3
71	239	0.020408	4
71	246	0.02045464	5
71	253	0.02050128	6
71	296	0.02427184	7
71	303	0.02431848	8
74	8	0	0
74	23	0.00400816	0
74	27	0.00400816	0
74	58	0.00807024	0
74	58	0.00807024	0
74	80	0.01212064	0
74	80	0.01212064	0
74	89	0.01216728	0
74	89	0.01216728	0
74	124	0.01617104	0
74	124	0.01617104	0
74	133	0.01621768	0
74	133	0.01621768	0
74	142	0.01626432	0
74	142	0.01626432	0
74	151	0.01631096	0
74	151	0.01631096	0
74	209	0.02022144	0
74	209	0.02022144	0
74	218	0.02026808	0
74	218	0.02026808	536
74	225	0.02031472	536
74	225	0.02031472	1072
74	232	0.02036136	1072
74	232	0.02036136	1608
74	239	0.020408	1608
74	239	0.020408	2144
74	246	0.02045464	2144
74	246	0.02045464	2680
74	253	0.02050128	2680
74	253	0.02050128	3216
74	296	0.02427184	3216
74	296	0.02427184	3752
74	303	0.02431848	3752
74	303	0.02431848	4288
74	310	0.02441176	4288
74	310	0.02441176	0
74	338	0.02846216	0
74	338	0.02846216	0
74	347	0.0285088	0
74	347	0.0285088	0
74	382	0.03251256	0
74	382	0.03251256	0
74	391	0.0325592	0
74	391	0.0325592	0
74	400	0.03260584	0
74	400	0.03260584	0
74	409	0.03265248	0
74	409	0.03265248	0
74	455	0.03656296	0
74	455	0.03656296	0
74	464	0.0366096	0
74	464	0.0366096	0
74	473	0.03665624	0
74	473	0.03665624	0
74	482	0.03670288	0
74	482	0.03670288	0
74	491	0.03674952	0
74	491	0.03674952	0
74	545	0.04061336	0
74	545	0.04061336	0
74	554	0.04066	0
74	554	0.04066	0
74	563	0.04070664	0
74	563	0.04070664	0
74	572	0.04075328	0
74	572	0.04075328	0
74	581	0.04079992	0
74	581	0.04079992	0
74	590	0.04084656	0
74	590	0.04084656	0
74	637	0.04466376	0
74	637	0.04466376	0
74	646	0.0447104	0
74	646	0.0447104	0
74	655	0.04475704	0
74	655	0.04475704	0
74	664	0.04477968	0
74	664	0.04477968	0
74	667	0.04477968	0
74	707	0.04879472	0
5	17	0.00200408	44
5	44	0.00601984	40
5	47	0.00601984	576
5	70	0.010074	576
5	71	0.010074	576
5	101	0.0141244	576
5	102	0.0141244	576
5	113	0.01417104	576
5	114	0.01417104	576
5	163	0.0181748	576
5	164	0.0181748	576
5	173	0.01822144	576
5	174	0.01822144	576
5	185	0.01826808	576
5	186	0.01826808	576
5	196	0.01831472	576
5	197	0.01831472	576
5	263	0.0222252	576
5	264	0.0222252	576
5	281	0.02236512	576
5	328	0.02641552	576
5	329	0.02641552	576
5	359	0.03046592	576
5	360	0.03046592	576
5	371	0.03051256	576
5	372	0.03051256	576
5	421	0.03451632	576
5	422	0.03451632	576
5	432	0.03456296	576
5	440	0.0346096	576
5	448	0.03465624	576
5	502	0.03856672	576
5	510	0.03861336	576
5	519	0.03866	576
5	520	0.03866	576
5	530	0.03870664	576
5	538	0.03875328	576
5	601	0.04261712	576
5	609	0.04266376	576
5	618	0.0427104	576
5	619	0.0427104	276
5	692	0.0467872	40
5	697	0.0467872	40
6	17	0.00200408	44
6	44	0.00601984	40
6	47	0.00601984	576
6	70	0.010074	576
6	71	0.010074	576
6	101	0.0141244	576
6	102	0.0141244	576
6	113	0.01417104	576
6	114	0.01417104	576
6	163	0.0181748	576
6	173	0.01822144	576
6	174	0.01822144	576
6	185	0.01826808	576
6	186	0.01826808	576
6	196	0.01831472	576
6	197	0.01831472	576
6	263	0.0222252	576
6	264	0.0222252	576
6	281	0.02236512	576
6	328	0.02641552	576
6	329	0.02641552	576
6	359	0.03046592	576
6	360	0.03046592	576
6	371	0.03051256	576
6	372	0.03051256	576
6	421	0.03451632	576
6	422	0.03451632	576
6	432	0.03456296	576
6	440	0.0346096	576
6	448	0.03465624	576
6	502	0.03856672	576
6	510	0.03861336	576
6	519	0.03866	576
6	520	0.03866	576
6	530	0.03870664	576
6	538	0.03875328	576
6	601	0.04261712	576
6	609	0.04266376	576
6	618	0.0427104	576
6	619	0.0427104	276
6	692	0.0467872	40
6	697	0.0467872	40
7	164	0.0181748	576
8	18	0.00200408	44
8	46	0.00601984	40
8	49	0.00601984	576
8	72	0.010074	576
8	73	0.010074	576
8	103	0.0141244	576
8	104	0.0141244	576
8	115	0.01417104	576
8	116	0.01417104	576
8	165	0.0181748	576
8	175	0.01822144	576
8	176	0.01822144	576
8	187	0.01826808	576
8	188	0.01826808	576
8	198	0.01831472	576
8	199	0.01831472	576
8	265	0.0222252	576
8	266	0.0222252	576
8	282	0.02236512	576
8	330	0.02641552	576
8	331	0.02641552	576
8	361	0.03046592	576
8	362	0.03046592	576
8	373	0.03051256	576
8	374	0.03051256	576
8	423	0.03451632	576
8	424	0.03451632	576
8	433	0.03456296	576
8	441	0.0346096	576
8	449	0.03465624	576
8	503	0.03856672	576
8	511	0.03861336	576
8	521	0.03866	576
8	522	0.03866	576
8	531	0.03870664	576
8	539	0.03875328	576
8	602	0.04261712	576
8	610	0.04266376	576
8	620	0.0427104	576
8	621	0.0427104	276
8	694	0.0467872	40
8	698	0.0467872	40
10	18	0.00200408	0
10	46	0.00601984	0
10	50	0.0060236	3.76e-06
10	72	0.010074	0
10	75	0.01012064	4.664e-05
10	103	0.0141244	0
10	107	0.01417104	4.664e-05
10	117	0.01421768	4.664e-05
10	119	0.01426432	9.328e-05
10	165	0.0181748	0
10	175	0.01822144	0
10	179	0.01826808	4.664e-05
10	190	0.01831472	4.664e-05
10	200	0.01836136	9.328e-05
10	202	0.018408	9.328e-05
10	204	0.01845464	0.00013992
10	265	0.0222252	0
10	269	0.02227184	4.664e-05
10	282	0.02236512	0
10	330	0.02641552	0
10	333	0.02646216	4.664e-05
10	361	0.03046592	0
10	365	0.03051256	4.664e-05
10	375	0.0305592	4.664e-05
10	377	0.03060584	9.328e-05
10	423	0.03451632	0
10	427	0.03456296	4.664e-05
10	435	0.0346096	4.664e-05
10	443	0.03465624	4.664e-05
10	450	0.03470288	4.664e-05
10	503	0.03856672	0
10	511	0.03861336	0
10	521	0.03866	0
10	525	0.03870664	4.664e-05
10	533	0.03875328	4.664e-05
10	540	0.03879992	4.664e-05
10	602	0.04261712	0
10	610	0.04266376	0
10	620	0.0427104	0
10	624	0.04275704	4.664e-05
10	694	0.0467872	0
10	699	0.04679096	3.76e-06
11	0	0	0
11	49	0.00601984	1
11	50	0.0060236	0
11	73	0.010074	1
11	75	0.01012064	0
11	104	0.0141244	1
11	107	0.01417104	0
11	115	0.01417104	1
11	116	0.01417104	2
11	117	0.01421768	1
11	119	0.01426432	0
11	176	0.01822144	1
11	179	0.01826808	0
11	187	0.01826808	1
11	188	0.01826808	2
11	190	0.01831472	1
11	198	0.01831472	2
11	199	0.01831472	3
11	200	0.01836136	2
11	202	0.018408	1
11	204	0.01845464	0
11	266	0.0222252	1
11	269	0.02227184	0
11	331	0.02641552	1
11	333	0.02646216	0
11	362	0.03046592	1
11	365	0.03051256	0
11	373	0.03051256	1
11	374	0.03051256	2
11	375	0.0305592	1
11	377	0.03060584	0
11	424	0.03451632	1
11	427	0.03456296	0
11	433	0.03456296	1
11	435	0.0346096	0
11	441	0.0346096	1
11	443	0.03465624	0
11	449	0.03465624	1
11	450	0.03470288	0
11	522	0.03866	1
11	525	0.03870664	0
11	531	0.03870664	1
11	533	0.03875328	0
11	539	0.03875328	1
11	540	0.03879992	0
11	621	0.0427104	1
11	624	0.04275704	0
11	698	0.0467872	1
11	699	0.04679096	0
12	0	0	0
12	19	0.00200408	1
12	20	0.00200816	0
12	48	0.00601984	1
12	50	0.0060236	0
12	51	0.0060236	1
12	52	0.00607024	0
12	74	0.010074	1
12	75	0.01012064	0
12	76	0.01012064	1
12	77	0.01016728	0
12	105	0.0141244	1
12	107	0.01417104	0
12	109	0.01417104	1
12	117	0.01421768	0
12	118	0.01421768	1
12	119	0.01426432	0
12	120	0.01426432	1
12	121	0.01431096	0
12	166	0.0181748	1
12	168	0.01822144	0
12	177	0.01822144	1
12	179	0.01826808	0
12	181	0.01826808	1
12	190	0.01831472	0
12	192	0.01831472	1
12	200	0.01836136	0
12	201	0.01836136	1
12	202	0.018408	0
12	203	0.018408	1
12	204	0.01845464	0
12	205	0.01845464	1
12	206	0.01850128	0
12	267	0.0222252	1
12	269	0.02227184	0
12	271	0.02227184	1
12	274	0.02231848	0
12	283	0.02236512	1
12	285	0.02241176	0
12	332	0.02641552	1
12	333	0.02646216	0
12	334	0.02646216	1
12	335	0.0265088	0
12	363	0.03046592	1
12	365	0.03051256	0
12	367	0.03051256	1
12	375	0.0305592	0
12	376	0.0305592	1
12	377	0.03060584	0
12	378	0.03060584	1
12	379	0.03065248	0
12	425	0.03451632	1
12	427	0.03456296	0
12	429	0.03456296	1
12	435	0.0346096	0
12	437	0.0346096	1