version 2
run FlowControl-1-20170119-01:59:18-4171
attr configname FlowControl
attr datetime 20170119-01:59:18
attr experiment FlowControl
attr inifile omnetpp.ini
attr iterationvars $processingTime=45
attr iterationvars2 "$processingTime=45, $repetition=0"
attr measurement $processingTime=45
attr network Network
attr processid 4171
attr processingTime 45
attr repetition 0
attr replication #0
attr resultdir results
attr runnumber 1
attr seedset 1

vector 88  Network.server.ppp[0].queue  queueLength:vector  ETV
attr interpolationmode  sample-hold
attr title  "queue length, vector"
vector 89  Network.server.ppp[0].ppp  txState:vector  ETV
attr interpolationmode  sample-hold
attr title  "tx state, vector"
vector 104  Network.client.ppp[0].queue  queueLength:vector  ETV
attr interpolationmode  sample-hold
attr title  "queue length, vector"
vector 105  Network.client.ppp[0].ppp  txState:vector  ETV
attr interpolationmode  sample-hold
attr title  "tx state, vector"
vector 151  Network.client.tcp  tcpRcvQueueBytes  ETV
vector 138  Network.client.tcp  "advertised window"  ETV
vector 137  Network.client.tcp  "receive window"  ETV
vector 140  Network.client.tcp  "sent ack"  ETV
vector 101  Network.client.ppp[0].queue  rcvdPk:vector(packetBytes)  ETV
attr interpolationmode  none
attr title  "received packets, vector(packetBytes)"
vector 103  Network.client.ppp[0].queue  queueingTime:vector  ETV
attr interpolationmode  none
attr title  "queueing time, vector"
vector 110  Network.client.ppp[0].ppp  rcvdPkFromHL:vector(packetBytes)  ETV
attr interpolationmode  none
attr source  packetReceivedFromUpper
attr title  "packets received from higher layer, vector(packetBytes)"
vector 106  Network.client.ppp[0].ppp  txPk:vector(packetBytes)  ETV
attr interpolationmode  none
attr source  packetSentToLower
attr title  "packets transmitted, vector(packetBytes)"
vector 91  Network.server.ppp[0].ppp  rxPkOk:vector(packetBytes)  ETV
attr interpolationmode  none
attr source  rxPkOk
attr title  "packets received OK, vector(packetBytes)"
vector 95  Network.server.ppp[0].ppp  passedUpPk:vector(packetBytes)  ETV
attr interpolationmode  none
attr source  packetSentToUpper
attr title  "packets passed to higher layer, vector(packetBytes)"
vector 117  Network.server.tcp  "rcvd seq"  ETV
vector 118  Network.server.tcp  "rcvd ack"  ETV
vector 114  Network.server.tcp  "advertised window"  ETV
vector 112  Network.server.tcp  "send window"  ETV
vector 127  Network.server.tcp  tcpRcvQueueBytes  ETV
vector 113  Network.server.tcp  "receive window"  ETV
vector 116  Network.server.tcp  "sent ack"  ETV
vector 85  Network.server.ppp[0].queue  rcvdPk:vector(packetBytes)  ETV
attr interpolationmode  none
attr title  "received packets, vector(packetBytes)"
vector 87  Network.server.ppp[0].queue  queueingTime:vector  ETV
attr interpolationmode  none
attr title  "queueing time, vector"
vector 94  Network.server.ppp[0].ppp  rcvdPkFromHL:vector(packetBytes)  ETV
attr interpolationmode  none
attr source  packetReceivedFromUpper
attr title  "packets received from higher layer, vector(packetBytes)"
vector 90  Network.server.ppp[0].ppp  txPk:vector(packetBytes)  ETV
attr interpolationmode  none
attr source  packetSentToLower
attr title  "packets transmitted, vector(packetBytes)"
vector 107  Network.client.ppp[0].ppp  rxPkOk:vector(packetBytes)  ETV
attr interpolationmode  none
attr source  rxPkOk
attr title  "packets received OK, vector(packetBytes)"
vector 111  Network.client.ppp[0].ppp  passedUpPk:vector(packetBytes)  ETV
attr interpolationmode  none
attr source  packetSentToUpper
attr title  "packets passed to higher layer, vector(packetBytes)"
vector 141  Network.client.tcp  "rcvd seq"  ETV
vector 142  Network.client.tcp  "rcvd ack"  ETV
vector 136  Network.client.tcp  "send window"  ETV
vector 139  Network.client.tcp  "sent seq"  ETV
vector 143  Network.client.tcp  "unacked bytes"  ETV
vector 119  Network.server.tcp  "unacked bytes"  ETV
vector 120  Network.server.tcp  "rcvd dupAcks"  ETV
vector 115  Network.server.tcp  "sent seq"  ETV
vector 155  Network.client.tcp  "measured RTT"  ETV
vector 156  Network.client.tcp  "smoothed RTT"  ETV
vector 157  Network.client.tcp  RTTVAR  ETV
vector 158  Network.client.tcp  RTO  ETV
vector 153  Network.client.tcp  cwnd  ETV
vector 144  Network.client.tcp  "rcvd dupAcks"  ETV
vector 131  Network.server.tcp  "measured RTT"  ETV
vector 132  Network.server.tcp  "smoothed RTT"  ETV
vector 133  Network.server.tcp  RTTVAR  ETV
vector 134  Network.server.tcp  RTO  ETV
vector 129  Network.server.tcp  cwnd  ETV
vector 149  Network.client.tcp  "rcvd naseg"  ETV
vector 148  Network.client.tcp  "rcvd oooseg"  ETV
vector 130  Network.server.tcp  ssthresh  ETV
129	65	0.100074	1072
129	95	0.1401244	1608
129	102	0.14017104	2144
129	128	0.1801748	2680
129	136	0.18020992	3216
129	161	0.2202252	3752
129	168	0.22027184	4288
129	194	0.2602756	4824
129	202	0.26031072	5360
129	224	0.300326	5896
129	231	0.30037264	6432
129	257	0.3403764	6968
129	265	0.34041152	7504
129	290	0.3804268	8040
129	297	0.38047344	8576
129	323	0.4204772	9112
129	331	0.42051232	9648
129	356	0.4605276	10184
129	363	0.46057424	10720
129	389	0.500578	11256
129	392	0.50061312	11792
129	438	10.040620719999	2680
129	491	10.080628479999	1072
129	494	10.080675119999	1340
129	501	10.080721759999	1554
129	508	10.080768399999	1738
129	530	10.120704079999	1903
129	533	10.120739199999	2053
129	579	20.660746799998	2680
129	632	20.700754559998	1072
129	635	20.700801199998	1340
129	642	20.700847839998	1554
129	649	20.700894479998	1738
129	671	20.740830159998	1903
129	674	20.740865279998	2053
129	720	31.280872879997	2680
129	773	31.320880639997	1072
129	776	31.320927279997	1340
129	783	31.320973919997	1554
129	790	31.321020559997	1738
129	812	31.360956239997	1903
129	815	31.360991359997	2053
129	861	41.900998959996	2680
129	914	41.941006719996	1072
129	917	41.941053359996	1340
129	924	41.941099999996	1554
129	931	41.941146639996	1738
129	953	41.981082319996	1903
129	956	41.981117439996	2053
129	1002	52.521125039995	2680
129	1055	52.561132799995	1072
129	1058	52.561179439995	1340
129	1061	52.561226079995	1554
129	1064	52.561265439995	1738
129	1099	52.646144079995	1903
130	438	10.040620719999	1072
130	579	20.660746799998	1072
130	720	31.280872879997	1072
130	861	41.900998959996	1072
130	1002	52.521125039995	1072
131	65	0.100074	0.04005416
131	95	0.1401244	0.0400504
131	128	0.1801748	0.0400504
131	161	0.2202252	0.0400504
131	194	0.2602756	0.0400504
131	224	0.300326	0.0400504
131	257	0.3403764	0.0400504
131	290	0.3804268	0.0400504
131	323	0.4204772	0.0400504
131	356	0.4605276	0.0400504
131	389	0.500578	0.0400504
131	491	10.080628479999	4.580015359999
131	530	10.120704079999	0.04002896
131	632	20.700754559998	4.580015359999
131	671	20.740830159998	0.04002896
131	773	31.320880639997	4.580015359999
131	812	31.360956239997	0.04002896
131	914	41.941006719996	4.580015359999
131	953	41.981082319996	0.04002896
131	1055	52.561132799995	4.580015359999
132	65	0.100074	0.00500677
132	95	0.1401244	0.00938722375
132	128	0.1801748	0.013220120781
132	161	0.2202252	0.016573905683
132	194	0.2602756	0.019508467472
132	224	0.300326	0.022076209038
132	257	0.3403764	0.024322982908
132	290	0.3804268	0.026288910044
132	323	0.4204772	0.028009096288
132	356	0.4605276	0.029514259252
132	389	0.500578	0.030831276845
132	491	10.080628479999	0.599479287239
132	530	10.120704079999	0.529547996335
132	632	20.700754559998	1.035856416793
132	671	20.740830159998	0.911377984694
132	773	31.320880639997	1.369957656607
132	812	31.360956239997	1.203716569532
132	914	41.941006719996	1.62575391834
132	953	41.981082319996	1.427538298548
132	1055	52.561132799995	1.821597931229
133	65	0.100074	0.66125677
133	95	0.1401244	0.5829801275
133	128	0.1801748	0.513940508594
133	161	0.2202252	0.453051729923
133	194	0.2602756	0.399354825473
133	224	0.300326	0.352003213855
133	257	0.3403764	0.310249585994
133	290	0.3804268	0.273434314882
133	323	0.4204772	0.240975211767
133	356	0.4605276	0.212358473261
133	389	0.500578	0.187130681697
133	491	10.080628479999	0.732387356879
133	530	10.120704079999	0.710770228174
133	632	20.700754559998	1.12823237011
133	671	20.740830159998	1.111681755946
133	773	31.320880639997	1.431301208365
133	812	31.360956239997	1.418629644396
133	914	41.941006719996	1.663338287654
133	953	41.981082319996	1.65363662149
133	1055	52.561132799995	1.840991676485
134	65	0.100074	2.65003385
134	95	0.1401244	2.34130773375
134	128	0.1801748	2.068982155157
134	161	0.2202252	1.828780825375
134	194	0.2602756	1.616927769364
134	224	0.300326	1.430089064458
134	257	0.3403764	1.265321326884
134	290	0.3804268	1.120026169572
134	323	0.4204772	1
134	356	0.4605276	1
134	389	0.500578	1
134	491	10.080628479999	3.529028714755
134	530	10.120704079999	3.372628909031
134	632	20.700754559998	5.548785897233
134	671	20.740830159998	5.358105008478
134	773	31.320880639997	7.095162490067
134	812	31.360956239997	6.878235147116
134	914	41.941006719996	8.279107068956
134	953	41.981082319996	8.042084784508
134	1055	52.561132799995	9.185564637169
112	15	0.02000408	2000
112	35	0.06001192	2000
112	65	0.100074	1464
112	95	0.1401244	1464
112	102	0.14017104	928
112	128	0.1801748	1464
112	136	0.18020992	1072
112	161	0.2202252	1464
112	168	0.22027184	928
112	194	0.2602756	1464
112	202	0.26031072	1072
112	224	0.300326	1464
112	231	0.30037264	928
112	257	0.3403764	1464
112	265	0.34041152	1072
112	290	0.3804268	1464
112	297	0.38047344	928
112	323	0.4204772	1464
112	331	0.42051232	1072
112	356	0.4605276	1464
112	363	0.46057424	928
112	389	0.500578	392
112	392	0.50061312	0
112	408	5.540620719999	2000
112	423	7.040620719999	2000
112	438	10.040620719999	2000
112	491	10.080628479999	1997
112	494	10.080675119999	1464
112	501	10.080721759999	928
112	508	10.080768399999	392
112	530	10.120704079999	124
112	533	10.120739199999	0
112	549	16.160746799998	2000
112	564	17.660746799998	2000
112	579	20.660746799998	2000
112	632	20.700754559998	1997
112	635	20.700801199998	1464
112	642	20.700847839998	928
112	649	20.700894479998	392
112	671	20.740830159998	124
112	674	20.740865279998	0
112	690	26.780872879997	2000
112	705	28.280872879997	2000
112	720	31.280872879997	2000
112	773	31.320880639997	1997
112	776	31.320927279997	1464
112	783	31.320973919997	928
112	790	31.321020559997	392
112	812	31.360956239997	124
112	815	31.360991359997	0
112	831	37.400998959996	2000
112	846	38.900998959996	2000
112	861	41.900998959996	2000
112	914	41.941006719996	1997
112	917	41.941053359996	1464
112	924	41.941099999996	928
112	931	41.941146639996	392
112	953	41.981082319996	124
112	956	41.981117439996	0
112	972	48.021125039995	2000
112	987	49.521125039995	2000
112	1002	52.521125039995	2000
112	1055	52.561132799995	1997
112	1058	52.561179439995	1464
112	1061	52.561226079995	928
112	1064	52.561265439995	483
112	1099	52.646144079995	2000
113	15	0.02000408	65535
113	39	0.06001984	65535
113	42	0.06001984	65535
113	65	0.100074	65535
113	65	0.100074	65535
113	95	0.1401244	65535
113	102	0.14017104	65535
113	128	0.1801748	65535
113	128	0.1801748	65535
113	161	0.2202252	65535
113	168	0.22027184	65535
113	194	0.2602756	65535
113	194	0.2602756	65535
113	224	0.300326	65535
113	231	0.30037264	65535
113	257	0.3403764	65535
113	257	0.3403764	65535
113	290	0.3804268	65535
113	297	0.38047344	65535
113	323	0.4204772	65535
113	323	0.4204772	65535
113	356	0.4605276	65535
113	363	0.46057424	65535
113	394	5.50061312	65535
113	409	7.00061312	65535
113	424	10.00061312	65535
113	438	10.040620719999	65535
113	438	10.040620719999	65535
113	438	10.040620719999	65535
113	438	10.040620719999	65535
113	494	10.080675119999	65535
113	501	10.080721759999	65535
113	535	16.120739199999	65535
113	550	17.620739199999	65535
113	565	20.620739199999	65535
113	579	20.660746799998	65535
113	579	20.660746799998	65535
113	579	20.660746799998	65535
113	579	20.660746799998	65535
113	635	20.700801199998	65535
113	642	20.700847839998	65535
113	676	26.740865279998	65535
113	691	28.240865279998	65535
113	706	31.240865279998	65535
113	720	31.280872879997	65535
113	720	31.280872879997	65535
113	720	31.280872879997	65535
113	720	31.280872879997	65535
113	776	31.320927279997	65535
113	783	31.320973919997	65535
113	817	37.360991359997	65535
113	832	38.860991359997	65535
113	847	41.860991359997	65535
113	861	41.900998959996	65535
113	861	41.900998959996	65535
113	861	41.900998959996	65535
113	861	41.900998959996	65535
113	917	41.941053359996	65535
113	924	41.941099999996	65535
113	958	47.981117439996	65535
113	973	49.481117439996	65535
113	988	52.481117439996	65535
113	1002	52.521125039995	65535
113	1002	52.521125039995	65535
113	1002	52.521125039995	65535
113	1002	52.521125039995	65535
113	1075	52.606132799995	65535
113	1079	52.606132799995	65535
114	15	0.02000408	65536
114	15	0.02000408	65536
114	39	0.06001984	65588
114	42	0.06001984	65588
114	65	0.100074	65588
114	65	0.100074	65588
114	95	0.1401244	65588
114	102	0.14017104	65588
114	128	0.1801748	65588
114	128	0.1801748	65588
114	161	0.2202252	65588
114	168	0.22027184	65588
114	194	0.2602756	65588
114	194	0.2602756	65588
114	224	0.300326	65588
114	231	0.30037264	65588
114	257	0.3403764	65588
114	257	0.3403764	65588
114	290	0.3804268	65588
114	297	0.38047344	65588
114	323	0.4204772	65588
114	323	0.4204772	65588
114	356	0.4605276	65588
114	363	0.46057424	65588
114	394	5.50061312	65588
114	409	7.00061312	65588
114	424	10.00061312	65588
114	438	10.040620719999	65588
114	438	10.040620719999	65588
114	438	10.040620719999	65588
114	438	10.040620719999	65588
114	494	10.080675119999	65588
114	501	10.080721759999	65588
114	535	16.120739199999	65588
114	550	17.620739199999	65588
114	565	20.620739199999	65588
114	579	20.660746799998	65588
114	579	20.660746799998	65588
114	579	20.660746799998	65588
114	579	20.660746799998	65588
114	635	20.700801199998	65588
114	642	20.700847839998	65588
114	676	26.740865279998	65588
114	691	28.240865279998	65588
114	706	31.240865279998	65588
114	720	31.280872879997	65588
114	720	31.280872879997	65588
114	720	31.280872879997	65588
114	720	31.280872879997	65588
114	776	31.320927279997	65588
114	783	31.320973919997	65588
114	817	37.360991359997	65588
114	832	38.860991359997	65588
114	847	41.860991359997	65588
114	861	41.900998959996	65588
114	861	41.900998959996	65588
114	861	41.900998959996	65588
114	861	41.900998959996	65588
114	917	41.941053359996	65588
114	924	41.941099999996	65588
114	958	47.981117439996	65588
114	973	49.481117439996	65588
114	988	52.481117439996	65588
114	1002	52.521125039995	65588
114	1002	52.521125039995	65588
114	1002	52.521125039995	65588
114	1002	52.521125039995	65588
114	1075	52.606132799995	65589
114	1079	52.606132799995	65589
115	42	0.06001984	5002
115	65	0.100074	5538
115	65	0.100074	6074
115	95	0.1401244	6610
115	102	0.14017104	7146
115	128	0.1801748	7538
115	128	0.1801748	8074
115	161	0.2202252	8610
115	168	0.22027184	9146
115	194	0.2602756	9538
115	194	0.2602756	10074
115	224	0.300326	10610
115	231	0.30037264	11146
115	257	0.3403764	11538
115	257	0.3403764	12074
115	290	0.3804268	12610
115	297	0.38047344	13146
115	323	0.4204772	13538
115	323	0.4204772	14074
115	356	0.4605276	14610
115	363	0.46057424	15146
115	394	5.50061312	15538
115	409	7.00061312	15539
115	424	10.00061312	15540
115	438	10.040620719999	15538
115	438	10.040620719999	15541
115	438	10.040620719999	16077
115	438	10.040620719999	16613
115	494	10.080675119999	17149
115	501	10.080721759999	17417
115	535	16.120739199999	17541
115	550	17.620739199999	17542
115	565	20.620739199999	17543
115	579	20.660746799998	17541
115	579	20.660746799998	17544
115	579	20.660746799998	18080
115	579	20.660746799998	18616
115	635	20.700801199998	19152
115	642	20.700847839998	19420
115	676	26.740865279998	19544
115	691	28.240865279998	19545
115	706	31.240865279998	19546
115	720	31.280872879997	19544
115	720	31.280872879997	19547
115	720	31.280872879997	20083
115	720	31.280872879997	20619
115	776	31.320927279997	21155
115	783	31.320973919997	21423
115	817	37.360991359997	21547
115	832	38.860991359997	21548
115	847	41.860991359997	21549
115	861	41.900998959996	21547
115	861	41.900998959996	21550
115	861	41.900998959996	22086
115	861	41.900998959996	22622
115	917	41.941053359996	23158
115	924	41.941099999996	23426
115	958	47.981117439996	23550
115	973	49.481117439996	23551
115	988	52.481117439996	23552
115	1002	52.521125039995	23550
115	1002	52.521125039995	23553
115	1002	52.521125039995	24089
115	1002	52.521125039995	24625
116	15	0.02000408	1
116	39	0.06001984	53
116	42	0.06001984	53
116	65	0.100074	53
116	65	0.100074	53
116	95	0.1401244	53
116	102	0.14017104	53
116	128	0.1801748	53
116	128	0.1801748	53
116	161	0.2202252	53
116	168	0.22027184	53
116	194	0.2602756	53
116	194	0.2602756	53
116	224	0.300326	53
116	231	0.30037264	53
116	257	0.3403764	53
116	257	0.3403764	53
116	290	0.3804268	53
116	297	0.38047344	53
116	323	0.4204772	53
116	323	0.4204772	53
116	356	0.4605276	53
116	363	0.46057424	53
116	394	5.50061312	53
116	409	7.00061312	53
116	424	10.00061312	53
116	438	10.040620719999	53
116	438	10.040620719999	53
116	438	10.040620719999	53
116	438	10.040620719999	53
116	494	10.080675119999	53
116	501	10.080721759999	53
116	535	16.120739199999	53
116	550	17.620739199999	53
116	565	20.620739199999	53
116	579	20.660746799998	53
116	579	20.660746799998	53
116	579	20.660746799998	53
116	579	20.660746799998	53
116	635	20.700801199998	53
116	642	20.700847839998	53
116	676	26.740865279998	53
116	691	28.240865279998	53
116	706	31.240865279998	53
116	720	31.280872879997	53
116	720	31.280872879997	53
116	720	31.280872879997	53
116	720	31.280872879997	53
116	776	31.320927279997	53
116	783	31.320973919997	53
116	817	37.360991359997	53
116	832	38.860991359997	53
116	847	41.860991359997	53
116	861	41.900998959996	53
116	861	41.900998959996	53
116	861	41.900998959996	53
116	861	41.900998959996	53
116	917	41.941053359996	53
116	924	41.941099999996	53
116	958	47.981117439996	53
116	973	49.481117439996	53
116	988	52.481117439996	53
116	1002	52.521125039995	53
116	1002	52.521125039995	53
116	1002	52.521125039995	53
116	1002	52.521125039995	53
116	1075	52.606132799995	54
116	1079	52.606132799995	54
117	15	0.02000408	0
117	35	0.06001192	1
117	39	0.06001984	1
117	65	0.100074	53
117	95	0.1401244	53
117	102	0.14017104	53
117	128	0.1801748	53
117	136	0.18020992	53
117	161	0.2202252	53
117	168	0.22027184	53
117	194	0.2602756	53
117	202	0.26031072	53
117	224	0.300326	53
117	231	0.30037264	53
117	257	0.3403764	53
117	265	0.34041152	53
117	290	0.3804268	53
117	297	0.38047344	53
117	323	0.4204772	53
117	331	0.42051232	53
117	356	0.4605276	53
117	363	0.46057424	53
117	389	0.500578	53
117	392	0.50061312	53
117	408	5.540620719999	53
117	423	7.040620719999	53
117	438	10.040620719999	53
117	491	10.080628479999	53
117	494	10.080675119999	53
117	501	10.080721759999	53
117	508	10.080768399999	53
117	530	10.120704079999	53
117	533	10.120739199999	53
117	549	16.160746799998	53
117	564	17.660746799998	53
117	579	20.660746799998	53
117	632	20.700754559998	53
117	635	20.700801199998	53
117	642	20.700847839998	53
117	649	20.700894479998	53
117	671	20.740830159998	53
117	674	20.740865279998	53
117	690	26.780872879997	53
117	705	28.280872879997	53
117	720	31.280872879997	53
117	773	31.320880639997	53
117	776	31.320927279997	53
117	783	31.320973919997	53
117	790	31.321020559997	53
117	812	31.360956239997	53
117	815	31.360991359997	53
117	831	37.400998959996	53
117	846	38.900998959996	53
117	861	41.900998959996	53
117	914	41.941006719996	53
117	917	41.941053359996	53
117	924	41.941099999996	53
117	931	41.941146639996	53
117	953	41.981082319996	53
117	956	41.981117439996	53
117	972	48.021125039995	53
117	987	49.521125039995	53
117	1002	52.521125039995	53
117	1055	52.561132799995	53
117	1058	52.561179439995	53
117	1061	52.561226079995	53
117	1064	52.561265439995	53
117	1075	52.606132799995	53
117	1099	52.646144079995	54
118	15	0.02000408	0
118	35	0.06001192	5002
118	39	0.06001984	5002
118	65	0.100074	5538
118	95	0.1401244	6074
118	102	0.14017104	6610
118	128	0.1801748	7146
118	136	0.18020992	7538
118	161	0.2202252	8074
118	168	0.22027184	8610
118	194	0.2602756	9146
118	202	0.26031072	9538
118	224	0.300326	10074
118	231	0.30037264	10610
118	257	0.3403764	11146
118	265	0.34041152	11538
118	290	0.3804268	12074
118	297	0.38047344	12610
118	323	0.4204772	13146
118	331	0.42051232	13538
118	356	0.4605276	14074
118	363	0.46057424	14610
118	389	0.500578	15146
118	392	0.50061312	15538
118	408	5.540620719999	15538
118	423	7.040620719999	15538
118	438	10.040620719999	15538
118	491	10.080628479999	15541
118	494	10.080675119999	16077
118	501	10.080721759999	16613
118	508	10.080768399999	17149
118	530	10.120704079999	17417
118	533	10.120739199999	17541
118	549	16.160746799998	17541
118	564	17.660746799998	17541
118	579	20.660746799998	17541
118	632	20.700754559998	17544
118	635	20.700801199998	18080
118	642	20.700847839998	18616
118	649	20.700894479998	19152
118	671	20.740830159998	19420
118	674	20.740865279998	19544
118	690	26.780872879997	19544
118	705	28.280872879997	19544
118	720	31.280872879997	19544
118	773	31.320880639997	19547
118	776	31.320927279997	20083
118	783	31.320973919997	20619
118	790	31.321020559997	21155
118	812	31.360956239997	21423
118	815	31.360991359997	21547
118	831	37.400998959996	21547
118	846	38.900998959996	21547
118	861	41.900998959996	21547
118	914	41.941006719996	21550
118	917	41.941053359996	22086
118	924	41.941099999996	22622
118	931	41.941146639996	23158
118	953	41.981082319996	23426
118	956	41.981117439996	23550
118	972	48.021125039995	23550
118	987	49.521125039995	23550
118	1002	52.521125039995	23550
118	1055	52.561132799995	23553
118	1058	52.561179439995	24089
118	1061	52.561226079995	24625
118	1064	52.561265439995	25070
118	1075	52.606132799995	25070
118	1099	52.646144079995	25071
119	35	0.06001192	0
119	42	0.06001984	536
119	65	0.100074	0
119	65	0.100074	1072
119	95	0.1401244	536
119	95	0.1401244	1072
119	102	0.14017104	536
119	102	0.14017104	928
119	128	0.1801748	392
119	128	0.1801748	1464
119	136	0.18020992	1072
119	161	0.2202252	536
119	161	0.2202252	1072
119	168	0.22027184	536
119	168	0.22027184	928
119	194	0.2602756	392
119	194	0.2602756	1464
119	202	0.26031072	1072
119	224	0.300326	536
119	224	0.300326	1072
119	231	0.30037264	536
119	231	0.30037264	928
119	257	0.3403764	392
119	257	0.3403764	1464
119	265	0.34041152	1072
119	290	0.3804268	536
119	290	0.3804268	1072
119	297	0.38047344	536
119	297	0.38047344	928
119	323	0.4204772	392
119	323	0.4204772	1464
119	331	0.42051232	1072
119	356	0.4605276	536
119	356	0.4605276	1072
119	363	0.46057424	536
119	363	0.46057424	928
119	389	0.500578	392
119	392	0.50061312	0
119	394	5.50061312	1
119	409	7.00061312	2
119	424	10.00061312	3
119	438	10.040620719999	1611
119	491	10.080628479999	1608
119	494	10.080675119999	1072
119	494	10.080675119999	1340
119	501	10.080721759999	804
119	501	10.080721759999	928
119	508	10.080768399999	392
119	530	10.120704079999	124
119	533	10.120739199999	0
119	535	16.120739199999	1
119	550	17.620739199999	2
119	565	20.620739199999	3
119	579	20.660746799998	1611
119	632	20.700754559998	1608
119	635	20.700801199998	1072
119	635	20.700801199998	1340
119	642	20.700847839998	804
119	642	20.700847839998	928
119	649	20.700894479998	392
119	671	20.740830159998	124
119	674	20.740865279998	0
119	676	26.740865279998	1
119	691	28.240865279998	2
119	706	31.240865279998	3
119	720	31.280872879997	1611
119	773	31.320880639997	1608
119	776	31.320927279997	1072
119	776	31.320927279997	1340
119	783	31.320973919997	804
119	783	31.320973919997	928
119	790	31.321020559997	392
119	812	31.360956239997	124
119	815	31.360991359997	0
119	817	37.360991359997	1
119	832	38.860991359997	2
119	847	41.860991359997	3
119	861	41.900998959996	1611
119	914	41.941006719996	1608
119	917	41.941053359996	1072
119	917	41.941053359996	1340
119	924	41.941099999996	804
119	924	41.941099999996	928
119	931	41.941146639996	392
119	953	41.981082319996	124
119	956	41.981117439996	0
119	958	47.981117439996	1
119	973	49.481117439996	2
119	988	52.481117439996	3
119	1002	52.521125039995	1520
119	1055	52.561132799995	1517
119	1058	52.561179439995	981
119	1061	52.561226079995	445
119	1064	52.561265439995	0
119	1079	52.606132799995	1
119	1099	52.646144079995	0
120	39	0.06001984	0
120	65	0.100074	0
120	95	0.1401244	0
120	102	0.14017104	0
120	128	0.1801748	0
120	136	0.18020992	0
120	161	0.2202252	0
120	168	0.22027184	0
120	194	0.2602756	0
120	202	0.26031072	0
120	224	0.300326	0
120	231	0.30037264	0
120	257	0.3403764	0
120	265	0.34041152	0
120	290	0.3804268	0
120	297	0.38047344	0
120	323	0.4204772	0
120	331	0.42051232	0
120	356	0.4605276	0
120	363	0.46057424	0
120	389	0.500578	0
120	392	0.50061312	0
120	408	5.540620719999	1
120	423	7.040620719999	2
120	438	10.040620719999	3
120	491	10.080628479999	0
120	494	10.080675119999	0
120	501	10.080721759999	0
120	508	10.080768399999	0
120	530	10.120704079999	0
120	533	10.120739199999	0
120	549	16.160746799998	1
120	564	17.660746799998	2
120	579	20.660746799998	3
120	632	20.700754559998	0
120	635	20.700801199998	0
120	642	20.700847839998	0
120	649	20.700894479998	0
120	671	20.740830159998	0
120	674	20.740865279998	0
120	690	26.780872879997	1
120	705	28.280872879997	2
120	720	31.280872879997	3
120	773	31.320880639997	0
120	776	31.320927279997	0
120	783	31.320973919997	0
120	790	31.321020559997	0
120	812	31.360956239997	0
120	815	31.360991359997	0
120	831	37.400998959996	1
120	846	38.900998959996	2
120	861	41.900998959996	3
120	914	41.941006719996	0
120	917	41.941053359996	0
120	924	41.941099999996	0
120	931	41.941146639996	0
120	953	41.981082319996	0
120	956	41.981117439996	0
120	972	48.021125039995	1
120	987	49.521125039995	2
120	1002	52.521125039995	3
120	1055	52.561132799995	0
120	1058	52.561179439995	0
120	1061	52.561226079995	0
120	1064	52.561265439995	0
120	1075	52.606132799995	0
120	1099	52.646144079995	0
127	15	0.02000408	0
127	39	0.06001984	0
127	39	0.06001984	0
127	42	0.06001984	0
127	65	0.100074	0
127	65	0.100074	0
127	95	0.1401244	0
127	102	0.14017104	0
127	128	0.1801748	0
127	128	0.1801748	0
127	161	0.2202252	0
127	168	0.22027184	0
127	194	0.2602756	0
127	194	0.2602756	0
127	224	0.300326	0
127	231	0.30037264	0
127	257	0.3403764	0
127	257	0.3403764	0
127	290	0.3804268	0
127	297	0.38047344	0
127	323	0.4204772	0
127	323	0.4204772	0
127	356	0.4605276	0
127	363	0.46057424	0
127	394	5.50061312	0
127	409	7.00061312	0
127	424	10.00061312	0
127	438	10.040620719999	0
127	438	10.040620719999	0
127	438	10.040620719999	0
127	438	10.040620719999	0
127	494	10.080675119999	0
127	501	10.080721759999	0
127	535	16.120739199999	0
127	550	17.620739199999	0
127	565	20.620739199999	0
127	579	20.660746799998	0
127	579	20.660746799998	0
127	579	20.660746799998	0
127	579	20.660746799998	0
127	635	20.700801199998	0
127	642	20.700847839998	0
127	676	26.740865279998	0
127	691	28.240865279998	0
127	706	31.240865279998	0
127	720	31.280872879997	0
127	720	31.280872879997	0
127	720	31.280872879997	0
127	720	31.280872879997	0
127	776	31.320927279997	0
127	783	31.320973919997	0
127	817	37.360991359997	0
127	832	38.860991359997	0
127	847	41.860991359997	0
127	861	41.900998959996	0
127	861	41.900998959996	0
127	861	41.900998959996	0
127	861	41.900998959996	0
127	917	41.941053359996	0
127	924	41.941099999996	0
127	958	47.981117439996	0
127	973	49.481117439996	0
127	988	52.481117439996	0
127	1002	52.521125039995	0
127	1002	52.521125039995	0
127	1002	52.521125039995	0
127	1002	52.521125039995	0
127	1075	52.606132799995	0
127	1079	52.606132799995	0
153	52	0.0800236	1072
153	1088	52.626136559995	1608
155	52	0.0800236	0.04001544
156	52	0.0800236	0.00500193
157	52	0.0800236	0.66125193
158	52	0.0800236	2.65000965
136	22	0.04000816	65535
136	52	0.0800236	65535
136	1088	52.626136559995	65535
137	8	0	2000
137	22	0.04000816	2000
137	26	0.04000816	2000
137	55	0.08007024	1464
137	76	0.12012064	1464
137	84	0.12016728	928
137	109	0.16017104	1464
137	117	0.16020616	1072
137	142	0.20022144	1464
137	150	0.20026808	928
137	175	0.24027184	1464
137	183	0.24030696	1072
137	208	0.28032224	1464
137	216	0.28036888	928
137	241	0.32037264	1464
137	249	0.32040776	1072
137	274	0.36042304	1464
137	282	0.36046968	928
137	307	0.40047344	1464
137	315	0.40050856	1072
137	340	0.44052384	1464
137	348	0.44057048	928
137	370	0.48057424	392
137	378	0.48060936	0
137	401	5.520616959999	2000
137	416	7.020616959999	2000
137	431	10.020616959999	2000
137	457	10.060624719999	1997
137	467	10.060671359999	1464
137	475	10.060717999999	928
137	483	10.060764639999	392
137	511	10.100700319999	124
137	519	10.100735439999	0
137	542	16.140743039998	2000
137	557	17.640743039998	2000
137	572	20.640743039998	2000
137	598	20.680750799998	1997
137	608	20.680797439998	1464
137	616	20.680844079998	928
137	624	20.680890719998	392
137	652	20.720826399998	124
137	660	20.720861519998	0
137	683	26.760869119997	2000
137	698	28.260869119997	2000
137	713	31.260869119997	2000
137	739	31.300876879997	1997
137	749	31.300923519997	1464
137	757	31.300970159997	928
137	765	31.301016799997	392
137	793	31.340952479997	124
137	801	31.340987599997	0
137	824	37.380995199996	2000
137	839	38.880995199996	2000
137	854	41.880995199996	2000
137	880	41.921002959996	1997
137	890	41.921049599996	1464
137	898	41.921096239996	928
137	906	41.921142879996	392
137	934	41.961078559996	124
137	942	41.961113679996	0
137	965	48.001121279995	2000
137	980	49.501121279995	2000
137	995	52.501121279995	2000
137	1021	52.541129039995	1997
137	1031	52.541175679995	1464
137	1039	52.541222319995	928
137	1047	52.541261679995	483
137	1068	52.586129039995	2000
137	1091	52.626140319995	2000
138	8	0	2000
138	22	0.04000816	7002
138	22	0.04000816	7002
138	26	0.04000816	7002
138	55	0.08007024	7002
138	76	0.12012064	7538
138	84	0.12016728	7538
138	109	0.16017104	8610
138	117	0.16020616	8610
138	142	0.20022144	9538
138	150	0.20026808	9538
138	175	0.24027184	10610
138	183	0.24030696	10610
138	208	0.28032224	11538
138	216	0.28036888	11538
138	241	0.32037264	12610
138	249	0.32040776	12610
138	274	0.36042304	13538
138	282	0.36046968	13538