version 2
run RetransTimeout-0-20170119-01:39:43-3881
attr configname RetransTimeout
attr datetime 20170119-01:39:43
attr experiment RetransTimeout
attr inifile omnetpp.ini
attr iterationvars ""
attr iterationvars2 $repetition=0
attr measurement ""
attr network Network
attr processid 3881
attr repetition 0
attr replication #0
attr resultdir results
attr runnumber 0
attr seedset 0

vector 11  Network.server.ppp[0].queue  queueLength:vector  ETV
attr interpolationmode  sample-hold
attr title  "queue length, vector"
vector 12  Network.server.ppp[0].ppp  txState:vector  ETV
attr interpolationmode  sample-hold
attr title  "tx state, vector"
vector 27  Network.client.ppp[0].queue  queueLength:vector  ETV
attr interpolationmode  sample-hold
attr title  "queue length, vector"
vector 28  Network.client.ppp[0].ppp  txState:vector  ETV
attr interpolationmode  sample-hold
attr title  "tx state, vector"
vector 74  Network.client.tcp  tcpRcvQueueBytes  ETV
vector 61  Network.client.tcp  "advertised window"  ETV
vector 60  Network.client.tcp  "receive window"  ETV
vector 63  Network.client.tcp  "sent ack"  ETV
vector 24  Network.client.ppp[0].queue  rcvdPk:vector(packetBytes)  ETV
attr interpolationmode  none
attr title  "received packets, vector(packetBytes)"
vector 26  Network.client.ppp[0].queue  queueingTime:vector  ETV
attr interpolationmode  none
attr title  "queueing time, vector"
vector 33  Network.client.ppp[0].ppp  rcvdPkFromHL:vector(packetBytes)  ETV
attr interpolationmode  none
attr source  packetReceivedFromUpper
attr title  "packets received from higher layer, vector(packetBytes)"
vector 29  Network.client.ppp[0].ppp  txPk:vector(packetBytes)  ETV
attr interpolationmode  none
attr source  packetSentToLower
attr title  "packets transmitted, vector(packetBytes)"
vector 14  Network.server.ppp[0].ppp  rxPkOk:vector(packetBytes)  ETV
attr interpolationmode  none
attr source  rxPkOk
attr title  "packets received OK, vector(packetBytes)"
vector 18  Network.server.ppp[0].ppp  passedUpPk:vector(packetBytes)  ETV
attr interpolationmode  none
attr source  packetSentToUpper
attr title  "packets passed to higher layer, vector(packetBytes)"
vector 40  Network.server.tcp  "rcvd seq"  ETV
vector 41  Network.server.tcp  "rcvd ack"  ETV
vector 37  Network.server.tcp  "advertised window"  ETV
vector 35  Network.server.tcp  "send window"  ETV
vector 50  Network.server.tcp  tcpRcvQueueBytes  ETV
vector 36  Network.server.tcp  "receive window"  ETV
vector 39  Network.server.tcp  "sent ack"  ETV
vector 5  Network.server.ppp[0].outputHook[0]  rcvdPk:vector(packetBytes)  ETV
attr interpolationmode  none
attr source  rcvdPk
attr title  "packets received, vector(packetBytes)"
vector 6  Network.server.ppp[0].outputHook[0]  sentPk:vector(packetBytes)  ETV
attr interpolationmode  none
attr source  sentPk
attr title  "packets sent, vector(packetBytes)"
vector 8  Network.server.ppp[0].queue  rcvdPk:vector(packetBytes)  ETV
attr interpolationmode  none
attr title  "received packets, vector(packetBytes)"
vector 10  Network.server.ppp[0].queue  queueingTime:vector  ETV
attr interpolationmode  none
attr title  "queueing time, vector"
vector 17  Network.server.ppp[0].ppp  rcvdPkFromHL:vector(packetBytes)  ETV
attr interpolationmode  none
attr source  packetReceivedFromUpper
attr title  "packets received from higher layer, vector(packetBytes)"
vector 13  Network.server.ppp[0].ppp  txPk:vector(packetBytes)  ETV
attr interpolationmode  none
attr source  packetSentToLower
attr title  "packets transmitted, vector(packetBytes)"
vector 30  Network.client.ppp[0].ppp  rxPkOk:vector(packetBytes)  ETV
attr interpolationmode  none
attr source  rxPkOk
attr title  "packets received OK, vector(packetBytes)"
vector 34  Network.client.ppp[0].ppp  passedUpPk:vector(packetBytes)  ETV
attr interpolationmode  none
attr source  packetSentToUpper
attr title  "packets passed to higher layer, vector(packetBytes)"
vector 64  Network.client.tcp  "rcvd seq"  ETV
vector 65  Network.client.tcp  "rcvd ack"  ETV
vector 59  Network.client.tcp  "send window"  ETV
vector 62  Network.client.tcp  "sent seq"  ETV
vector 66  Network.client.tcp  "unacked bytes"  ETV
vector 42  Network.server.tcp  "unacked bytes"  ETV
vector 43  Network.server.tcp  "rcvd dupAcks"  ETV
vector 38  Network.server.tcp  "sent seq"  ETV
vector 78  Network.client.tcp  "measured RTT"  ETV
vector 79  Network.client.tcp  "smoothed RTT"  ETV
vector 80  Network.client.tcp  RTTVAR  ETV
vector 81  Network.client.tcp  RTO  ETV
vector 76  Network.client.tcp  cwnd  ETV
vector 67  Network.client.tcp  "rcvd dupAcks"  ETV
vector 54  Network.server.tcp  "measured RTT"  ETV
vector 55  Network.server.tcp  "smoothed RTT"  ETV
vector 56  Network.server.tcp  RTTVAR  ETV
vector 57  Network.server.tcp  RTO  ETV
vector 52  Network.server.tcp  cwnd  ETV
vector 7  Network.server.ppp[0].outputHook[0]  dropPk:vector(packetBytes)  ETV
attr interpolationmode  none
attr source  dropPk
attr title  "packets dropped, vector(packetBytes)"
vector 71  Network.client.tcp  "rcvd oooseg"  ETV
vector 53  Network.server.tcp  ssthresh  ETV
vector 58  Network.server.tcp  numRTOs  ETV
vector 72  Network.client.tcp  "rcvd naseg"  ETV
52	67	1.000074	1072
52	98	1.4001244	1608
52	110	1.40017104	2144
52	160	1.8001748	2680
52	172	1.80022144	3216
52	183	1.80026808	3752
52	192	1.80031472	4288
52	236	2.2002252	4824
52	246	2.20027184	5360
52	258	2.20031848	5896
52	269	2.20036512	6432
52	340	2.60036888	4824
52	348	2.60041552	5360
52	351	2.60046216	5896
52	354	2.6005088	6432
52	357	2.60055544	6968
52	381	3.00041928	3216
52	385	5.46051846475	536
52	402	5.86056886475	1072
52	433	6.26061926475	1608
52	445	6.26066590475	1786
52	477	6.66066966475	1946
52	528	7.06072006475	2093
52	536	7.06076670475	2230
52	548	7.06081334475	2358
52	593	7.46077046475	2479
52	601	7.46081710475	2594
52	609	7.46086374475	2704
52	621	7.46091038475	2810
52	675	7.86082086475	2912
52	683	7.86086750475	3010
52	691	7.86091414475	3105
52	694	7.86096078475	3197
52	697	7.86100742475	3286
52	722	8.26087126475	3373
52	725	8.26089390475	3458
52	754	8.66090894475	3541
53	340	2.60036888	3216
53	385	5.46051846475	1608
54	67	1.000074	0.40005416
54	98	1.4001244	0.4000504
54	160	1.8001748	0.4000504
54	236	2.2002252	0.4000504
54	433	6.26061926475	0.4000504
54	477	6.66066966475	0.4000504
54	528	7.06072006475	0.4000504
54	593	7.46077046475	0.4000504
54	675	7.86082086475	0.4000504
54	722	8.26087126475	0.4000504
55	67	1.000074	0.05000677
55	98	1.4001244	0.09376222375
55	160	1.8001748	0.132048245781
55	236	2.2002252	0.165548515058
55	433	6.26061926475	0.194861250675
55	477	6.66066966475	0.22050989434
55	528	7.06072006475	0.242952457547
55	593	7.46077046475	0.262589700353
55	675	7.86082086475	0.279772287808
55	722	8.26087126475	0.294807051832
56	67	1.000074	0.70625677
56	98	1.4001244	0.6617301275
56	160	1.8001748	0.617299883594
56	236	2.2002252	0.573637667423
56	433	6.26061926475	0.531245694613
56	477	6.66066966475	0.490488626452
56	528	7.06072006475	0.451620111353
56	593	7.46077046475	0.414804840241
56	675	7.86082086475	0.380136822667
56	722	8.26087126475	0.347654483858
57	67	1.000074	2.87503385
57	98	1.4001244	2.74068273375
57	160	1.8001748	2.601247780157
57	236	2.2002252	2.46009918475
57	433	6.26061926475	2.319844029127
57	477	6.66066966475	2.182464400148
57	528	7.06072006475	2.049432902959
57	593	7.46077046475	1.921809061317
57	675	7.86082086475	1.800319578476
57	722	8.26087126475	1.685424987264
58	385	5.46051846475	1
35	15	0.20000408	65535
35	36	0.60001192	65535
35	67	1.000074	65535
35	98	1.4001244	65535
35	110	1.40017104	65535
35	160	1.8001748	65535
35	172	1.80022144	65535
35	183	1.80026808	65535
35	192	1.80031472	65535
35	236	2.2002252	65535
35	246	2.20027184	65535
35	258	2.20031848	65535
35	269	2.20036512	65535
35	334	2.6002756	65535
35	337	2.60032224	65535
35	340	2.60036888	65535
35	348	2.60041552	65535
35	351	2.60046216	65535
35	354	2.6005088	65535
35	357	2.60055544	65535
35	381	3.00041928	64999
35	384	3.00060584	64999
35	402	5.86056886475	64463
35	433	6.26061926475	63927
35	445	6.26066590475	63391
35	477	6.66066966475	65535
35	492	6.66071630475	65535
35	497	6.66076294475	65535
35	528	7.06072006475	65535
35	536	7.06076670475	65535
35	548	7.06081334475	65535
35	593	7.46077046475	65535
35	601	7.46081710475	65535
35	609	7.46086374475	65535
35	621	7.46091038475	65535
35	675	7.86082086475	65535
35	683	7.86086750475	65535
35	691	7.86091414475	65535
35	694	7.86096078475	65535
35	697	7.86100742475	65535
35	722	8.26087126475	65535
35	725	8.26089390475	65535
35	754	8.66090894475	65535
36	15	0.20000408	65535
36	40	0.60001984	65535
36	43	0.60001984	65535
36	67	1.000074	65535
36	67	1.000074	65535
36	98	1.4001244	65535
36	98	1.4001244	65535
36	110	1.40017104	65535
36	110	1.40017104	65535
36	160	1.8001748	65535
36	160	1.8001748	65535
36	172	1.80022144	65535
36	172	1.80022144	65535
36	183	1.80026808	65535
36	183	1.80026808	65535
36	192	1.80031472	65535
36	192	1.80031472	65535
36	236	2.2002252	65535
36	236	2.2002252	65535
36	246	2.20027184	65535
36	246	2.20027184	65535
36	258	2.20031848	65535
36	258	2.20031848	65535
36	269	2.20036512	65535
36	269	2.20036512	65535
36	340	2.60036888	65535
36	357	2.60055544	65535
36	385	5.46051846475	65535
36	402	5.86056886475	65535
36	402	5.86056886475	65535
36	433	6.26061926475	65535
36	433	6.26061926475	65535
36	445	6.26066590475	65535
36	477	6.66066966475	65535
36	477	6.66066966475	65535
36	477	6.66066966475	65535
36	528	7.06072006475	65535
36	536	7.06076670475	65535
36	536	7.06076670475	65535
36	548	7.06081334475	65535
36	593	7.46077046475	65535
36	601	7.46081710475	65535
36	609	7.46086374475	65535
36	609	7.46086374475	65535
36	621	7.46091038475	65535
36	675	7.86082086475	65535
36	683	7.86086750475	65535
36	728	8.26089766475	65535
36	732	8.26089766475	65535
37	15	0.20000408	65536
37	15	0.20000408	65536
37	40	0.60001984	65588
37	43	0.60001984	65588
37	67	1.000074	65588
37	67	1.000074	65588
37	98	1.4001244	65588
37	98	1.4001244	65588
37	110	1.40017104	65588
37	110	1.40017104	65588
37	160	1.8001748	65588
37	160	1.8001748	65588
37	172	1.80022144	65588
37	172	1.80022144	65588
37	183	1.80026808	65588
37	183	1.80026808	65588
37	192	1.80031472	65588
37	192	1.80031472	65588
37	236	2.2002252	65588
37	236	2.2002252	65588
37	246	2.20027184	65588
37	246	2.20027184	65588
37	258	2.20031848	65588
37	258	2.20031848	65588
37	269	2.20036512	65588
37	269	2.20036512	65588
37	340	2.60036888	65588
37	357	2.60055544	65588
37	385	5.46051846475	65588
37	402	5.86056886475	65588
37	402	5.86056886475	65588
37	433	6.26061926475	65588
37	433	6.26061926475	65588
37	445	6.26066590475	65588
37	477	6.66066966475	65588
37	477	6.66066966475	65588
37	477	6.66066966475	65588
37	528	7.06072006475	65588
37	536	7.06076670475	65588
37	536	7.06076670475	65588
37	548	7.06081334475	65588
37	593	7.46077046475	65588
37	601	7.46081710475	65588
37	609	7.46086374475	65588
37	609	7.46086374475	65588
37	621	7.46091038475	65588
37	675	7.86082086475	65588
37	683	7.86086750475	65588
37	728	8.26089766475	65589
37	732	8.26089766475	65589
38	43	0.60001984	50002
38	67	1.000074	50538
38	67	1.000074	51074
38	98	1.4001244	51610
38	98	1.4001244	52146
38	110	1.40017104	52682
38	110	1.40017104	53218
38	160	1.8001748	53754
38	160	1.8001748	54290
38	172	1.80022144	54826
38	172	1.80022144	55362
38	183	1.80026808	55898
38	183	1.80026808	56434
38	192	1.80031472	56970
38	192	1.80031472	57506
38	236	2.2002252	58042
38	236	2.2002252	58578
38	246	2.20027184	59114
38	246	2.20027184	59650
38	258	2.20031848	60186
38	258	2.20031848	60722
38	269	2.20036512	61258
38	269	2.20036512	61794
38	340	2.60036888	55898
38	357	2.60055544	62330
38	385	5.46051846475	56434
38	402	5.86056886475	56970
38	402	5.86056886475	57506
38	433	6.26061926475	58042
38	433	6.26061926475	58578
38	445	6.26066590475	59114
38	477	6.66066966475	62866
38	477	6.66066966475	63402
38	477	6.66066966475	63938
38	528	7.06072006475	64474
38	536	7.06076670475	65010
38	536	7.06076670475	65546
38	548	7.06081334475	66082
38	593	7.46077046475	66618
38	601	7.46081710475	67154
38	609	7.46086374475	67690
38	609	7.46086374475	68226
38	621	7.46091038475	68762
38	675	7.86082086475	69298
38	683	7.86086750475	69834
39	15	0.20000408	1
39	40	0.60001984	53
39	43	0.60001984	53
39	67	1.000074	53
39	67	1.000074	53
39	98	1.4001244	53
39	98	1.4001244	53
39	110	1.40017104	53
39	110	1.40017104	53
39	160	1.8001748	53
39	160	1.8001748	53
39	172	1.80022144	53
39	172	1.80022144	53
39	183	1.80026808	53
39	183	1.80026808	53
39	192	1.80031472	53
39	192	1.80031472	53
39	236	2.2002252	53
39	236	2.2002252	53
39	246	2.20027184	53
39	246	2.20027184	53
39	258	2.20031848	53
39	258	2.20031848	53
39	269	2.20036512	53
39	269	2.20036512	53
39	340	2.60036888	53
39	357	2.60055544	53
39	385	5.46051846475	53
39	402	5.86056886475	53
39	402	5.86056886475	53
39	433	6.26061926475	53
39	433	6.26061926475	53
39	445	6.26066590475	53
39	477	6.66066966475	53
39	477	6.66066966475	53
39	477	6.66066966475	53
39	528	7.06072006475	53
39	536	7.06076670475	53
39	536	7.06076670475	53
39	548	7.06081334475	53
39	593	7.46077046475	53
39	601	7.46081710475	53
39	609	7.46086374475	53
39	609	7.46086374475	53
39	621	7.46091038475	53
39	675	7.86082086475	53
39	683	7.86086750475	53
39	728	8.26089766475	54
39	732	8.26089766475	54
40	15	0.20000408	0
40	36	0.60001192	1
40	40	0.60001984	1
40	67	1.000074	53
40	98	1.4001244	53
40	110	1.40017104	53
40	160	1.8001748	53
40	172	1.80022144	53
40	183	1.80026808	53
40	192	1.80031472	53
40	236	2.2002252	53
40	246	2.20027184	53
40	258	2.20031848	53
40	269	2.20036512	53
40	334	2.6002756	53
40	337	2.60032224	53
40	340	2.60036888	53
40	348	2.60041552	53
40	351	2.60046216	53
40	354	2.6005088	53
40	357	2.60055544	53
40	381	3.00041928	53
40	384	3.00060584	53
40	402	5.86056886475	53
40	433	6.26061926475	53
40	445	6.26066590475	53
40	477	6.66066966475	53
40	492	6.66071630475	53
40	497	6.66076294475	53
40	528	7.06072006475	53
40	536	7.06076670475	53
40	548	7.06081334475	53
40	593	7.46077046475	53
40	601	7.46081710475	53
40	609	7.46086374475	53
40	621	7.46091038475	53
40	675	7.86082086475	53
40	683	7.86086750475	53
40	691	7.86091414475	53
40	694	7.86096078475	53
40	697	7.86100742475	53
40	722	8.26087126475	53
40	725	8.26089390475	53
40	728	8.26089766475	53
40	754	8.66090894475	54
41	15	0.20000408	0
41	36	0.60001192	50002
41	40	0.60001984	50002
41	67	1.000074	50538
41	98	1.4001244	51074
41	110	1.40017104	51610
41	160	1.8001748	52146
41	172	1.80022144	52682
41	183	1.80026808	53218
41	192	1.80031472	53754
41	236	2.2002252	54290
41	246	2.20027184	54826
41	258	2.20031848	55362
41	269	2.20036512	55898
41	334	2.6002756	55898
41	337	2.60032224	55898
41	340	2.60036888	55898
41	348	2.60041552	55898
41	351	2.60046216	55898
41	354	2.6005088	55898
41	357	2.60055544	55898
41	381	3.00041928	56434
41	384	3.00060584	56434
41	402	5.86056886475	56970
41	433	6.26061926475	57506
41	445	6.26066590475	58042
41	477	6.66066966475	62866
41	492	6.66071630475	62866
41	497	6.66076294475	62866
41	528	7.06072006475	63402
41	536	7.06076670475	63938
41	548	7.06081334475	64474
41	593	7.46077046475	65010
41	601	7.46081710475	65546
41	609	7.46086374475	66082
41	621	7.46091038475	66618
41	675	7.86082086475	67154
41	683	7.86086750475	67690
41	691	7.86091414475	68226
41	694	7.86096078475	68762
41	697	7.86100742475	69298
41	722	8.26087126475	69834
41	725	8.26089390475	70070
41	728	8.26089766475	70070
41	754	8.66090894475	70071
42	36	0.60001192	0
42	43	0.60001984	536
42	67	1.000074	0
42	67	1.000074	1072
42	98	1.4001244	536
42	98	1.4001244	1608
42	110	1.40017104	1072
42	110	1.40017104	2144
42	160	1.8001748	1608
42	160	1.8001748	2680
42	172	1.80022144	2144
42	172	1.80022144	3216
42	183	1.80026808	2680
42	183	1.80026808	3752
42	192	1.80031472	3216
42	192	1.80031472	4288
42	236	2.2002252	3752
42	236	2.2002252	4824
42	246	2.20027184	4288
42	246	2.20027184	5360
42	258	2.20031848	4824
42	258	2.20031848	5896
42	269	2.20036512	5360
42	269	2.20036512	6432
42	357	2.60055544	6968
42	381	3.00041928	6432
42	402	5.86056886475	5896
42	402	5.86056886475	5896
42	433	6.26061926475	5360
42	433	6.26061926475	5360
42	445	6.26066590475	4824
42	445	6.26066590475	4824
42	477	6.66066966475	0
42	477	6.66066966475	1608
42	528	7.06072006475	1072
42	528	7.06072006475	1608
42	536	7.06076670475	1072
42	536	7.06076670475	2144
42	548	7.06081334475	1608
42	548	7.06081334475	2144
42	593	7.46077046475	1608
42	593	7.46077046475	2144
42	601	7.46081710475	1608
42	601	7.46081710475	2144
42	609	7.46086374475	1608
42	609	7.46086374475	2680
42	621	7.46091038475	2144
42	621	7.46091038475	2680
42	675	7.86082086475	2144
42	675	7.86082086475	2680
42	683	7.86086750475	2144
42	683	7.86086750475	2380
42	691	7.86091414475	1844
42	694	7.86096078475	1308
42	697	7.86100742475	772
42	722	8.26087126475	236
42	725	8.26089390475	0
42	732	8.26089766475	1
42	754	8.66090894475	0
43	40	0.60001984	0
43	67	1.000074	0
43	98	1.4001244	0
43	110	1.40017104	0
43	160	1.8001748	0
43	172	1.80022144	0
43	183	1.80026808	0
43	192	1.80031472	0
43	236	2.2002252	0
43	246	2.20027184	0
43	258	2.20031848	0
43	269	2.20036512	0
43	334	2.6002756	1
43	337	2.60032224	2
43	340	2.60036888	3
43	348	2.60041552	4
43	351	2.60046216	5
43	354	2.6005088	6
43	357	2.60055544	7
43	381	3.00041928	0
43	384	3.00060584	1
43	402	5.86056886475	0
43	433	6.26061926475	0
43	445	6.26066590475	0
43	477	6.66066966475	0
43	492	6.66071630475	1
43	497	6.66076294475	2
43	528	7.06072006475	0
43	536	7.06076670475	0
43	548	7.06081334475	0
43	593	7.46077046475	0
43	601	7.46081710475	0
43	609	7.46086374475	0
43	621	7.46091038475	0
43	675	7.86082086475	0
43	683	7.86086750475	0
43	691	7.86091414475	0
43	694	7.86096078475	0
43	697	7.86100742475	0
43	722	8.26087126475	0
43	725	8.26089390475	0
43	728	8.26089766475	0
43	754	8.66090894475	0
50	15	0.20000408	0
50	40	0.60001984	0
50	40	0.60001984	0
50	43	0.60001984	0
50	67	1.000074	0
50	67	1.000074	0
50	98	1.4001244	0
50	98	1.4001244	0
50	110	1.40017104	0
50	110	1.40017104	0
50	160	1.8001748	0
50	160	1.8001748	0
50	172	1.80022144	0
50	172	1.80022144	0
50	183	1.80026808	0
50	183	1.80026808	0
50	192	1.80031472	0
50	192	1.80031472	0
50	236	2.2002252	0
50	236	2.2002252	0
50	246	2.20027184	0
50	246	2.20027184	0
50	258	2.20031848	0
50	258	2.20031848	0
50	269	2.20036512	0
50	269	2.20036512	0
50	340	2.60036888	0
50	357	2.60055544	0
50	385	5.46051846475	0
50	402	5.86056886475	0
50	402	5.86056886475	0
50	433	6.26061926475	0
50	433	6.26061926475	0
50	445	6.26066590475	0
50	477	6.66066966475	0
50	477	6.66066966475	0
50	477	6.66066966475	0
50	528	7.06072006475	0
50	536	7.06076670475	0
50	536	7.06076670475	0
50	548	7.06081334475	0
50	593	7.46077046475	0
50	601	7.46081710475	0
50	609	7.46086374475	0
50	609	7.46086374475	0
50	621	7.46091038475	0
50	675	7.86082086475	0
50	683	7.86086750475	0
50	728	8.26089766475	0
50	732	8.26089766475	0
76	55	0.8000236	1072
76	743	8.46090142475	1608
78	55	0.8000236	0.40001544
79	55	0.8000236	0.05000193
80	55	0.8000236	0.70625193
81	55	0.8000236	2.87500965
59	23	0.40000816	65535
59	55	0.8000236	65535
59	743	8.46090142475	65535
60	8	0	65535
60	23	0.40000816	65535
60	27	0.40000816	65535
60	58	0.80007024	65535
60	80	1.20012064	65535
60	89	1.20016728	65535
60	124	1.60017104	65535
60	133	1.60021768	65535
60	142	1.60026432	65535
60	151	1.60031096	65535
60	200	2.00022144	65535
60	209	2.00026808	65535
60	218	2.00031472	65535
60	227	2.00036136	65535
60	285	2.40027184	65535
60	292	2.40031848	65535
60	299	2.40036512	65535
60	306	2.40041176	65535
60	313	2.4004584	65535
60	320	2.40050504	65535
60	327	2.40055168	65535
60	365	2.80041552	64999
60	374	2.80060208	64999
60	393	5.66056510475	64463
60	415	6.06061550475	63927
60	424	6.06066214475	63391
60	454	6.46066590475	65535
60	463	6.46071254475	65535
60	470	6.46075918475	65535
60	501	6.86071630475	65535
60	510	6.86076294475	65535
60	519	6.86080958475	65535
60	557	7.26076670475	65535
60	566	7.26081334475	65535
60	575	7.26085998475	65535
60	584	7.26090662475	65535
60	630	7.66081710475	65535
60	639	7.66086374475	65535
60	648	7.66091038475	65535
60	657	7.66095702475	65535
60	666	7.66100366475	65535
60	700	8.06086750475	65535
60	709	8.06089014475	65535
60	712	8.06089014475	65535
60	746	8.46090518475	65535
61	8	0	65535
61	23	0.40000816	115537
61	23	0.40000816	115537
61	27	0.40000816	115537
61	58	0.80007024	116073
61	80	1.20012064	116609
61	89	1.20016728	117145
61	124	1.60017104	117681
61	133	1.60021768	118217
61	142	1.60026432	118753
61	151	1.60031096	119289
61	200	2.00022144	119825
61	209	2.00026808	120361
61	218	2.00031472	120897
61	227	2.00036136	121433
61	285	2.40027184	121433
61	292	2.40031848	121433
61	299	2.40036512	121433
61	306	2.40041176	121433
61	313	2.4004584	121433
61	320	2.40050504	121433
61	327	2.40055168	121433
61	365	2.80041552	121433
61	374	2.80060208	121433
61	393	5.66056510475	121433
61	415	6.06061550475	121433
61	424	6.06066214475	121433
61	454	6.46066590475	128401
61	463	6.46071254475	128401
61	470	6.46075918475	128401
61	501	6.86071630475	128937
61	510	6.86076294475	129473
61	519	6.86080958475	130009
61	557	7.26076670475	130545
61	566	7.26081334475	131081
61	575	7.26085998475	131617
61	584	7.26090662475	132153
61	630	7.66081710475	132689
61	639	7.66086374475	133225
61	648	7.66091038475	133761
61	657	7.66095702475	134297
61	666	7.66100366475	134833
61	700	8.06086750475	135369
61	709	8.06089014475	135605
61	712	8.06089014475	135605
61	746	8.46090518475	135606
62	27	0.40000816	1
63	8	0	0
63	23	0.40000816	50002
63	27	0.40000816	50002
63	58	0.80007024	50538
63	80	1.20012064	51074
63	89	1.20016728	51610
63	124	1.60017104	52146
63	133	1.60021768	52682
63	142	1.60026432	53218
63	151	1.60031096	53754
63	200	2.00022144	54290
63	209	2.00026808	54826
63	218	2.00031472	55362
63	227	2.00036136	55898
63	285	2.40027184	55898
63	292	2.40031848	55898
63	299	2.40036512	55898
63	306	2.40041176	55898
63	313	2.4004584	55898
63	320	2.40050504	55898
63	327	2.40055168	55898
63	365	2.80041552	56434
63	374	2.80060208	56434
63	393	5.66056510475	56970
63	415	6.06061550475	57506
63	424	6.06066214475	58042
63	454	6.46066590475	62866
63	463	6.46071254475	62866
63	470	6.46075918475	62866
63	501	6.86071630475	63402
63	510	6.86076294475	63938
63	519	6.86080958475	64474
63	557	7.26076670475	65010
63	566	7.26081334475	65546
63	575	7.26085998475	66082
63	584	7.26090662475	66618
63	630	7.66081710475	67154
63	639	7.66086374475	67690
63	648	7.66091038475	68226
63	657	7.66095702475	68762
63	666	7.66100366475	69298
63	700	8.06086750475	69834
63	709	8.06089014475	70070
63	712	8.06089014475	70070
63	746	8.46090518475	70071
64	23	0.40000816	50001
64	55	0.8000236	50002
64	58	0.80007024	50002
64	80	1.20012064	50538
64	89	1.20016728	51074
64	124	1.60017104	51610
64	133	1.60021768	52146
64	142	1.60026432	52682
64	151	1.60031096	53218
64	200	2.00022144	53754
64	209	2.00026808	54290
64	218	2.00031472	54826
64	227	2.00036136	55362
64	285	2.40027184	58578
64	292	2.40031848	59114
64	299	2.40036512	59650
64	306	2.40041176	60186
64	313	2.4004584	60722
64	320	2.40050504	61258
64	327	2.40055168	61794
64	365	2.80041552	55898
64	374	2.80060208	62330
64	393	5.66056510475	56434
64	415	6.06061550475	56970
64	424	6.06066214475	57506
64	454	6.46066590475	58042
64	463	6.46071254475	58578
64	470	6.46075918475	59114
64	501	6.86071630475	62866
64	510	6.86076294475	63402
64	519	6.86080958475	63938
64	557	7.26076670475	64474
64	566	7.26081334475	65010
64	575	7.26085998475	65546
64	584	7.26090662475	66082
64	630	7.66081710475	66618
64	639	7.66086374475	67154
64	648	7.66091038475	67690
64	657	7.66095702475	68226
64	666	7.66100366475	68762
64	700	8.06086750475	69298
64	709	8.06089014475	69834
64	743	8.46090142475	70070
64	746	8.46090518475	70070
65	23	0.40000816	1
65	55	0.8000236	53
65	58	0.80007024	53
65	80	1.20012064	53
65	89	1.20016728	53
65	124	1.60017104	53
65	133	1.60021768	53
65	142	1.60026432	53
65	151	1.60031096	53
65	200	2.00022144	53
65	209	2.00026808	53
65	218	2.00031472	53
65	227	2.00036136	53
65	285	2.40027184	53
65	292	2.40031848	53
65	299	2.40036512	53
65	306	2.40041176	53
65	313	2.4004584	53
65	320	2.40050504	53
65	327	2.40055168	53
65	365	2.80041552	53
65	374	2.80060208	53
65	393	5.66056510475	53
65	415	6.06061550475	53
65	424	6.06066214475	53
65	454	6.46066590475	53
65	463	6.46071254475	53
65	470	6.46075918475	53
65	501	6.86071630475	53
65	510	6.86076294475	53
65	519	6.86080958475	53
65	557	7.26076670475	53
65	566	7.26081334475	53
65	575	7.26085998475	53
65	584	7.26090662475	53
65	630	7.66081710475	53
65	639	7.66086374475	53
65	648	7.66091038475	53
65	657	7.66095702475	53
65	666	7.66100366475	53
65	700	8.06086750475	53
65	709	8.06089014475	53
65	743	8.46090142475	54
65	746	8.46090518475	54
66	27	0.40000816	52
66	55	0.8000236	0
66	712	8.06089014475	1
66	743	8.46090142475	0
67	55	0.8000236	0
67	58	0.80007024	0
67	80	1.20012064	0
67	89	1.20016728	0
67	124	1.60017104	0
67	133	1.60021768	0
67	142	1.60026432	0
67	151	1.60031096	0
67	200	2.00022144	0
67	209	2.00026808	0
67	218	2.00031472	0
67	227	2.00036136	0
67	285	2.40027184	0
67	292	2.40031848	0
67	299	2.40036512	0
67	306	2.40041176	0
67	313	2.4004584	0
67	320	2.40050504	0
67	327	2.40055168	0
67	365	2.80041552	0
67	374	2.80060208	0
67	393	5.66056510475	0
67	415	6.06061550475	0
67	424	6.06066214475	0
67	454	6.46066590475	0
67	501	6.86071630475	0
67	510	6.86076294475	0
67	519	6.86080958475	0
67	557	7.26076670475	0
67	566	7.26081334475	0
67	575	7.26085998475	0
67	584	7.26090662475	0
67	630	7.66081710475	0
67	639	7.66086374475	0
67	648	7.66091038475	0
67	657	7.66095702475	0
67	666	7.66100366475	0
67	700	8.06086750475	0
67	709	8.06089014475	0
67	743	8.46090142475	0
67	746	8.46090518475	0
71	285	2.40027184	1
71	292	2.40031848	2
71	299	2.40036512	3
71	306	2.40041176	4
71	313	2.4004584	5
71	320	2.40050504	6
71	327	2.40055168	7
71	374	2.80060208	8
72	463	6.46071254475	1
72	470	6.46075918475	2
74	8	0	0
74	23	0.40000816	0
74	27	0.40000816	0
74	58	0.80007024	0
74	58	0.80007024	0
74	80	1.20012064	0
74	80	1.20012064	0
74	89	1.20016728	0
74	89	1.20016728	0
74	124	1.60017104	0
74	124	1.60017104	0
74	133	1.60021768	0
74	133	1.60021768	0
74	142	1.60026432	0
74	142	1.60026432	0
74	151	1.60031096	0
74	151	1.60031096	0
74	200	2.00022144	0
74	200	2.00022144	0
74	209	2.00026808	0
74	209	2.00026808	0
74	218	2.00031472	0
74	218	2.00031472	0
74	227	2.00036136	0
74	227	2.00036136	0
74	285	2.40027184	0
74	285	2.40027184	536
74	292	2.40031848	536
74	292	2.40031848	1072
74	299	2.40036512	1072
74	299	2.40036512	1608
74	306	2.40041176	1608
74	306	2.40041176	2144
74	313	2.4004584	2144
74	313	2.4004584	2680
74	320	2.40050504	2680
74	320	2.40050504	3216
74	327	2.40055168	3216
74	327	2.40055168	3752
74	365	2.80041552	3752
74	365	2.80041552	3752
74	374	2.80060208	3752
74	374	2.80060208	4288
74	393	5.66056510475	4288
74	393	5.66056510475	4288
74	415	6.06061550475	4288
74	415	6.06061550475	4288
74	424	6.06066214475	4288
74	424	6.06066214475	4288
74	454	6.46066590475	4288
74	454	6.46066590475	0
74	463	6.46071254475	0
74	470	6.46075918475	0
74	501	6.86071630475	0
74	501	6.86071630475	0
74	510	6.86076294475	0
74	510	6.86076294475	0
74	519	6.86080958475	0
74	519	6.86080958475	0
74	557	7.26076670475	0
74	557	7.26076670475	0
74	566	7.26081334475	0
74	566	7.26081334475	0
74	575	7.26085998475	0
74	575	7.26085998475	0
74	584	7.26090662475	0
74	584	7.26090662475	0
74	630	7.66081710475	0
74	630	7.66081710475	0
74	639	7.66086374475	0
74	639	7.66086374475	0
74	648	7.66091038475	0
74	648	7.66091038475	0
74	657	7.66095702475	0
74	657	7.66095702475	0
74	666	7.66100366475	0
74	666	7.66100366475	0
74	700	8.06086750475	0
74	700	8.06086750475	0
74	709	8.06089014475	0
74	709	8.06089014475	0
74	712	8.06089014475	0
74	746	8.46090518475	0
5	17	0.20000408	44
5	44	0.60001984	40
5	47	0.60001984	576
5	70	1.000074	576
5	71	1.000074	576
5	101	1.4001244	576
5	102	1.4001244	576
5	113	1.40017104	576
5	114	1.40017104	576
5	163	1.8001748	576
5	164	1.8001748	576
5	175	1.80022144	576
5	176	1.80022144	576
5	186	1.80026808	576
5	187	1.80026808	576
5	195	1.80031472	576
5	196	1.80031472	576
5	239	2.2002252	576
5	240	2.2002252	576
5	249	2.20027184	576
5	250	2.20027184	576
5	261	2.20031848	576
5	262	2.20031848	576
5	272	2.20036512	576
5	273	2.20036512	576
5	342	2.60036888	576
5	359	2.60055544	576
5	387	5.46051846475	576
5	405	5.86056886475	576
5	406	5.86056886475	576
5	436	6.26061926475	576
5	437	6.26061926475	576
5	447	6.26066590475	576
5	481	6.66066966475	576
5	482	6.66066966475	576
5	483	6.66066966475	576
5	530	7.06072006475	576
5	539	7.06076670475	576
5	540	7.06076670475	576
5	550	7.06081334475	576
5	595	7.46077046475	576
5	603	7.46081710475	576
5	612	7.46086374475	576
5	613	7.46086374475	576
5	623	7.46091038475	576
5	677	7.86082086475	576
5	685	7.86086750475	276
5	731	8.26089766475	40
5	736	8.26089766475	40
6	17	0.20000408	44
6	44	0.60001984	40
6	47	0.60001984	576
6	70	1.000074	576
6	71	1.000074	576
6	101	1.4001244	576
6	102	1.4001244	576
6	113	1.40017104	576
6	114	1.40017104	576
6	163	1.8001748	576
6	164	1.8001748	576
6	175	1.80022144	576
6	176	1.80022144	576
6	240	2.2002252	576
6	249	2.20027184	576
6	250	2.20027184	576
6	261	2.20031848	576
6	262	2.20031848	576
6	272	2.20036512	576
6	273	2.20036512	576
6	342	2.60036888	576
6	359	2.60055544	576
6	387	5.46051846475	576
6	405	5.86056886475	576
6	406	5.86056886475	576
6	436	6.26061926475	576
6	437	6.26061926475	576
6	447	6.26066590475	576
6	481	6.66066966475	576
6	482	6.66066966475	576
6	483	6.66066966475	576
6	530	7.06072006475	576
6	539	7.06076670475	576
6	540	7.06076670475	576
6	550	7.06081334475	576
6	595	7.46077046475	576
6	603	7.46081710475	576
6	612	7.46086374475	576
6	613	7.46086374475	576
6	623	7.46091038475	576
6	677	7.86082086475	576
6	685	7.86086750475	276
6	731	8.26089766475	40
6	736	8.26089766475	40
7	186	1.80026808	576
7	187	1.80026808	576
7	195	1.80031472	576
7	196	1.80031472	576
7	239	2.2002252	576
8	18	0.20000408	44
8	46	0.60001984	40
8	49	0.60001984	576
8	72	1.000074	576
8	73	1.000074	576
8	103	1.4001244	576
8	104	1.4001244	576
8	115	1.40017104	576
8	116	1.40017104	576
8	165	1.8001748	576
8	166	1.8001748	576
8	177	1.80022144	576
8	178	1.80022144	576
8	241	2.2002252	576
8	251	2.20027184	576
8	252	2.20027184	576